ITEM: TIMESTEP
100000
ITEM: NUMBER OF ATOMS
105
ITEM: BOX BOUNDS pp pp pp
0.0000000000000000e+00 5.0000000000000000e+01
0.0000000000000000e+00 5.0000000000000000e+01
0.0000000000000000e+00 5.0000000000000000e+01
ITEM: ATOMS id type xs ys zs
5 2 0.139734 0.165007 0.192761
20 2 0.138238 0.166884 0.192902
13 1 0.159653 0.181658 0.203149
12 4 0.189123 0.183426 0.163122
10 4 0.189208 0.183249 0.163001
1 3 0.181897 0.166918 0.211574
7 3 0.182658 0.165641 0.183682
9 3 0.14452 0.212579 0.214469
11 1 0.178636 0.140881 0.221261
81 2 0.235687 0.118413 0.220482
67 3 0.251773 0.160691 0.205262
65 3 0.244041 0.139582 0.188745
64 4 0.2472 0.167211 0.191758
68 4 0.247221 0.167195 0.191898
74 1 0.278677 0.159741 0.212879
66 2 0.23959 0.116392 0.217637
15 4 0.151302 0.229483 0.19331
18 4 0.150962 0.228648 0.192555
51 3 0.210128 0.227886 0.214381
28 4 0.189457 0.288315 0.195968
34 4 0.189361 0.288931 0.19605
30 3 0.178701 0.284473 0.221476
49 4 0.22261 0.233161 0.19003
55 4 0.223664 0.232908 0.190439
45 2 0.279992 0.231838 0.210392
60 2 0.279956 0.232216 0.210434
50 3 0.234805 0.230482 0.201501
101 4 0.252582 0.293447 0.200419
103 4 0.252262 0.294183 0.20143
96 3 0.255644 0.306155 0.215529
100 3 0.278345 0.290571 0.21083
98 1 0.240881 0.329623 0.219145
48 1 0.254436 0.228522 0.221225
105 2 0.214244 0.336911 0.214743
99 2 0.213683 0.335491 0.22192
4 2 0.197457 0.160952 0.226242
19 2 0.197252 0.160028 0.229566
16 1 0.163434 0.174123 0.248463
8 3 0.17938 0.163394 0.260181
2 3 0.184951 0.165474 0.232866
14 4 0.181799 0.163224 0.288036
17 4 0.181041 0.165075 0.287999
3 3 0.151025 0.189448 0.228616
21 2 0.141458 0.190969 0.244551
6 2 0.143406 0.193424 0.245595
56 1 0.22156 0.220993 0.224311
69 1 0.253073 0.140026 0.224113
73 2 0.294089 0.178689 0.226494
83 2 0.295294 0.177701 0.226419
54 3 0.228347 0.209331 0.248992
58 3 0.231424 0.204242 0.276243
84 2 0.29461 0.128064 0.240297
78 2 0.29574 0.12857 0.241671
79 3 0.301188 0.171116 0.2612
80 4 0.296368 0.177269 0.28802
82 4 0.29713 0.179732 0.287477
52 2 0.245428 0.198184 0.247601
59 4 0.233538 0.203579 0.303965
62 2 0.246567 0.199164 0.247073
61 4 0.233688 0.199374 0.303713
75 3 0.295474 0.163343 0.234972
53 1 0.244865 0.212964 0.271284
77 1 0.276816 0.147856 0.24887
70 4 0.240442 0.141083 0.272516
76 4 0.240481 0.141077 0.27251
72 3 0.232708 0.119029 0.257301
71 3 0.249931 0.140588 0.25197
46 3 0.258199 0.220095 0.2476
57 2 0.198195 0.223465 0.23945
63 2 0.198397 0.222645 0.239865
36 2 0.15955 0.268074 0.240194
37 3 0.150419 0.243113 0.275793
38 4 0.169003 0.228338 0.290572
40 4 0.167756 0.226753 0.290413
35 1 0.158433 0.260887 0.267175
42 2 0.160201 0.265696 0.239707
29 3 0.166084 0.276022 0.244913
33 3 0.175421 0.249655 0.28636
32 1 0.198275 0.26554 0.283556
27 1 0.192343 0.284365 0.249934
31 2 0.186144 0.282299 0.30238
41 2 0.185842 0.283221 0.301312
25 3 0.215136 0.27701 0.26439
24 2 0.183576 0.309978 0.256976
39 2 0.184515 0.310908 0.254002
104 2 0.301903 0.288013 0.231046
94 2 0.305079 0.295769 0.2275
23 3 0.2251 0.273296 0.290213
95 1 0.27843 0.303222 0.231554
44 3 0.281755 0.234818 0.243847
26 4 0.228219 0.274291 0.262435
22 4 0.228374 0.274388 0.262476
43 4 0.284781 0.245445 0.269661
47 4 0.283645 0.242643 0.270547
88 3 0.278717 0.314931 0.256997
89 4 0.287327 0.307022 0.283291
85 4 0.287674 0.307079 0.280917
86 3 0.26676 0.3256 0.279985
97 4 0.257827 0.373688 0.225558
91 4 0.257379 0.373576 0.228843
93 3 0.2361 0.356402 0.222809
90 1 0.25938 0.334422 0.26224
87 2 0.23247 0.335409 0.269763
102 2 0.231675 0.334859 0.265932
92 3 0.237861 0.339585 0.245096
ITEM: TIMESTEP
110000
ITEM: NUMBER OF ATOMS
105
ITEM: BOX BOUNDS pp pp pp
0.0000000000000000e+00 5.0000000000000000e+01
0.0000000000000000e+00 5.0000000000000000e+01
0.0000000000000000e+00 5.0000000000000000e+01
ITEM: ATOMS id type xs ys zs
5 2 0.121297 0.177545 0.203952
20 2 0.123969 0.170085 0.210632
13 1 0.149033 0.181117 0.204744
12 4 0.186698 0.175089 0.163191
10 4 0.18395 0.178572 0.165447
1 3 0.173464 0.167472 0.206794
7 3 0.174292 0.157307 0.180737
9 3 0.144828 0.210849 0.209498
11 1 0.176499 0.139835 0.209509
51 3 0.210883 0.216232 0.214527
19 2 0.194003 0.16007 0.217615
67 3 0.251611 0.159431 0.203281
65 3 0.247135 0.139717 0.18381
64 4 0.248093 0.166504 0.191606
68 4 0.247877 0.166393 0.191897
74 1 0.277433 0.162362 0.214193
81 2 0.245825 0.115487 0.220111
73 2 0.299082 0.179876 0.216782
66 2 0.261732 0.117643 0.22212
15 4 0.153976 0.226936 0.188594
18 4 0.138692 0.229275 0.189418
28 4 0.196428 0.289489 0.193888
34 4 0.192841 0.287842 0.191171
30 3 0.182882 0.276762 0.214823
55 4 0.221002 0.225755 0.190197
49 4 0.223528 0.232205 0.195291
45 2 0.281527 0.224851 0.213475
60 2 0.279284 0.226175 0.206835
50 3 0.230498 0.234563 0.206552
101 4 0.256667 0.295141 0.196051
103 4 0.255743 0.298355 0.198307
96 3 0.260523 0.311797 0.214932
100 3 0.28076 0.293207 0.209884
48 1 0.254182 0.227003 0.219137
99 2 0.227067 0.341726 0.201169
4 2 0.192757 0.158531 0.222446
16 1 0.160673 0.176605 0.23737
8 3 0.177778 0.167059 0.258507
2 3 0.176972 0.154137 0.233662
14 4 0.181813 0.173362 0.285365
17 4 0.186074 0.164148 0.285034
3 3 0.138728 0.191538 0.22868
21 2 0.152245 0.202497 0.243858
6 2 0.137637 0.184623 0.251077
57 2 0.203288 0.214276 0.245782
63 2 0.20481 0.212209 0.246849
56 1 0.222128 0.215598 0.225178
83 2 0.302878 0.170459 0.222505
69 1 0.249691 0.142682 0.225459
54 3 0.227202 0.204869 0.250566
58 3 0.232311 0.208861 0.277717
84 2 0.294537 0.127614 0.259838
78 2 0.294562 0.127344 0.258726
79 3 0.305264 0.17273 0.258895
80 4 0.3 0.175833 0.286143
82 4 0.306107 0.177887 0.286427
52 2 0.26423 0.205263 0.249157
59 4 0.238927 0.210979 0.305192
62 2 0.262285 0.204623 0.247794
61 4 0.236871 0.199628 0.303331
75 3 0.29458 0.159707 0.236396
53 1 0.246515 0.211289 0.269783
77 1 0.276281 0.147997 0.25395
70 4 0.243957 0.146089 0.27244
76 4 0.243863 0.146116 0.272496
72 3 0.230347 0.124903 0.260485
71 3 0.248446 0.145185 0.253225
46 3 0.258188 0.219335 0.245608
36 2 0.159232 0.26317 0.237558
37 3 0.149168 0.246363 0.288963
38 4 0.173019 0.231618 0.288543
40 4 0.168597 0.228187 0.297562
35 1 0.164304 0.265581 0.264977
42 2 0.164814 0.255226 0.239004
29 3 0.168805 0.26793 0.237365
33 3 0.175223 0.255916 0.289106
32 1 0.199696 0.269365 0.288672
27 1 0.189442 0.283824 0.247427
31 2 0.192998 0.290286 0.305992
41 2 0.198841 0.291771 0.305435
25 3 0.210379 0.274187 0.263216
24 2 0.174195 0.307213 0.245747
39 2 0.173095 0.30223 0.260774
105 2 0.214033 0.332937 0.223433
98 1 0.241921 0.331259 0.22248
104 2 0.30316 0.302317 0.22671
94 2 0.303531 0.301315 0.22812
23 3 0.222579 0.268969 0.287727
95 1 0.277004 0.304456 0.236467
44 3 0.280612 0.236565 0.248184
26 4 0.226489 0.272754 0.260256
22 4 0.22645 0.272606 0.260222
43 4 0.288365 0.250142 0.270949
47 4 0.299465 0.24046 0.269247
88 3 0.267853 0.313576 0.261363
89 4 0.284338 0.310573 0.278429
85 4 0.286568 0.314646 0.285621
86 3 0.258909 0.317704 0.287603
102 2 0.23661 0.339484 0.278869
87 2 0.232862 0.342137 0.271796
97 4 0.261818 0.368742 0.233616
91 4 0.258847 0.371862 0.236666
93 3 0.237198 0.357214 0.226941
90 1 0.259078 0.340075 0.262189
92 3 0.234896 0.339186 0.248253
ITEM: TIMESTEP
120000
ITEM: NUMBER OF ATOMS
105
ITEM: BOX BOUNDS pp pp pp
0.0000000000000000e+00 5.0000000000000000e+01
0.0000000000000000e+00 5.0000000000000000e+01
0.0000000000000000e+00 5.0000000000000000e+01
ITEM: ATOMS id type xs ys zs
20 2 0.105484 0.17421 0.198213
5 2 0.121614 0.163226 0.178944
13 1 0.133081 0.178644 0.199253
12 4 0.185915 0.167215 0.165015
10 4 0.182544 0.170096 0.167168
1 3 0.154087 0.161443 0.192349
7 3 0.171379 0.14626 0.176452
9 3 0.143958 0.208369 0.20105
11 1 0.173877 0.15074 0.208998
51 3 0.213045 0.214016 0.216676
55 4 0.215019 0.221339 0.189787
67 3 0.253992 0.154675 0.204851
65 3 0.2463 0.139282 0.182517
64 4 0.246486 0.166736 0.187108
68 4 0.246105 0.16672 0.187071
74 1 0.279639 0.156257 0.215657
73 2 0.301223 0.172866 0.222001
81 2 0.248831 0.117682 0.214708
83 2 0.303626 0.170596 0.216823
15 4 0.149207 0.225244 0.179517
18 4 0.129083 0.228532 0.188784
28 4 0.194332 0.287558 0.190767
34 4 0.193831 0.284552 0.188944
30 3 0.174774 0.277972 0.208225
49 4 0.219549 0.227562 0.192979
45 2 0.279166 0.23206 0.199761
60 2 0.280876 0.237139 0.202971
50 3 0.233739 0.231554 0.210445
101 4 0.263019 0.295441 0.193411
103 4 0.262194 0.296264 0.194268
100 3 0.283174 0.295129 0.212758
48 1 0.260024 0.229653 0.22002
105 2 0.219378 0.345258 0.221175
19 2 0.186813 0.151364 0.233713
4 2 0.189832 0.162463 0.228715
16 1 0.153846 0.178119 0.237809
8 3 0.174809 0.157199 0.259125
2 3 0.162302 0.151673 0.234562
14 4 0.18443 0.164707 0.28432
17 4 0.182661 0.166186 0.284531
3 3 0.135681 0.193296 0.222943
21 2 0.149436 0.199879 0.254784
6 2 0.160527 0.20468 0.232163
57 2 0.208 0.214306 0.253634
63 2 0.206533 0.213668 0.252907
56 1 0.219158 0.215444 0.228011
66 2 0.237015 0.115562 0.225153
69 1 0.245501 0.142054 0.228031
54 3 0.229561 0.211328 0.253522
58 3 0.234371 0.20776 0.280637
84 2 0.299031 0.121312 0.253213
78 2 0.298989 0.121241 0.258085
79 3 0.313104 0.169113 0.257109
80 4 0.305927 0.178417 0.282579
82 4 0.312631 0.177495 0.283844
52 2 0.268707 0.2052 0.249127
59 4 0.24361 0.215359 0.305817
62 2 0.266593 0.203063 0.248605
61 4 0.241888 0.206721 0.307562
75 3 0.296584 0.157313 0.237777
53 1 0.252144 0.21427 0.269682
77 1 0.281057 0.142573 0.255772
70 4 0.244933 0.146224 0.273915
76 4 0.24502 0.146172 0.273897
72 3 0.232203 0.126972 0.257966
71 3 0.253333 0.144536 0.254497
46 3 0.26541 0.217634 0.245009
36 2 0.136611 0.253334 0.244978
37 3 0.148141 0.249621 0.30018
38 4 0.169535 0.231802 0.295955
40 4 0.17263 0.237527 0.305354
35 1 0.16103 0.258739 0.257481
42 2 0.157459 0.259106 0.22975
29 3 0.169347 0.263506 0.23135
33 3 0.167493 0.262078 0.284412
32 1 0.191977 0.275473 0.284906
27 1 0.187504 0.281205 0.243213
31 2 0.203691 0.285155 0.308405
41 2 0.196666 0.282104 0.311688
25 3 0.207832 0.276826 0.261932
24 2 0.185619 0.306205 0.255627
39 2 0.172753 0.304712 0.239507
23 3 0.221906 0.274883 0.286001
96 3 0.261094 0.308436 0.223337
98 1 0.241792 0.328587 0.222377
104 2 0.29866 0.326632 0.226766
94 2 0.304415 0.299259 0.232726
95 1 0.281231 0.311461 0.242547
44 3 0.286578 0.234758 0.251521
26 4 0.229362 0.272588 0.259199
22 4 0.229572 0.272616 0.25922
43 4 0.292708 0.248386 0.275811
47 4 0.31114 0.242673 0.261083
88 3 0.274311 0.321277 0.267866
89 4 0.283131 0.315571 0.279752
85 4 0.288267 0.321779 0.288576
86 3 0.261185 0.327945 0.291712
87 2 0.227421 0.329804 0.282989
99 2 0.215063 0.336166 0.225596
102 2 0.231561 0.344466 0.285561
97 4 0.264203 0.377219 0.242151
91 4 0.263148 0.377445 0.243834
93 3 0.242285 0.361014 0.235478
90 1 0.249606 0.334574 0.266619
92 3 0.230634 0.337973 0.246172
ITEM: TIMESTEP
130000
ITEM: NUMBER OF ATOMS
105
ITEM: BOX BOUNDS pp pp pp
0.0000000000000000e+00 5.0000000000000000e+01
0.0000000000000000e+00 5.0000000000000000e+01
0.0000000000000000e+00 5.0000000000000000e+01
ITEM: ATOMS id type xs ys zs
20 2 0.109384 0.171073 0.182004
5 2 0.123482 0.146882 0.187239
13 1 0.131928 0.171032 0.198576
12 4 0.183189 0.160766 0.168906
10 4 0.184826 0.159133 0.168152
1 3 0.14251 0.148973 0.185025
7 3 0.168377 0.139676 0.179673
9 3 0.139027 0.214908 0.19414
11 1 0.160648 0.155807 0.205369
51 3 0.209032 0.216908 0.21775
55 4 0.205802 0.221688 0.190372
3 3 0.14324 0.193283 0.211453
6 2 0.155864 0.20147 0.219318
49 4 0.208496 0.217597 0.189784
67 3 0.256401 0.152799 0.210009
65 3 0.242959 0.139022 0.189691
64 4 0.247759 0.166078 0.184732
68 4 0.247801 0.166044 0.184403
74 1 0.283491 0.147219 0.214346
83 2 0.303579 0.166238 0.218552
73 2 0.301507 0.168619 0.214578
60 2 0.283205 0.216638 0.202036
66 2 0.229072 0.119361 0.217401
50 3 0.235534 0.221857 0.211471
15 4 0.14345 0.224252 0.168057
18 4 0.117848 0.230902 0.185537
28 4 0.193434 0.283312 0.189487
34 4 0.195478 0.281824 0.19178
30 3 0.172453 0.27919 0.20744
45 2 0.277839 0.233862 0.1978
101 4 0.265612 0.294419 0.195453
103 4 0.266332 0.290903 0.195595
100 3 0.284611 0.295435 0.216093
48 1 0.262178 0.224164 0.218856
98 1 0.24377 0.325363 0.221972
105 2 0.22873 0.343048 0.206399
19 2 0.17479 0.154259 0.229471
4 2 0.17773 0.154952 0.2275
16 1 0.145036 0.183436 0.237692
8 3 0.170978 0.154431 0.258632
2 3 0.160656 0.160638 0.233154
14 4 0.1831 0.156034 0.284057
17 4 0.173351 0.170074 0.281625
21 2 0.123667 0.191266 0.253959
57 2 0.214154 0.197422 0.25593
63 2 0.218042 0.191722 0.252027
56 1 0.221091 0.212209 0.233267
81 2 0.219042 0.125942 0.2306
69 1 0.243772 0.13902 0.230807
54 3 0.232295 0.204582 0.257459
58 3 0.231541 0.212148 0.284214
84 2 0.303033 0.122157 0.241545
78 2 0.299455 0.122161 0.26585
79 3 0.31673 0.162669 0.255307
80 4 0.315244 0.178484 0.278268
82 4 0.315126 0.177859 0.278557
52 2 0.268205 0.201674 0.249049
59 4 0.246189 0.218121 0.306772
62 2 0.269013 0.201476 0.24976
61 4 0.246334 0.217529 0.307798
75 3 0.303227 0.153964 0.23276
53 1 0.254931 0.21569 0.269261
77 1 0.285967 0.141985 0.251434
70 4 0.245567 0.142058 0.275988
76 4 0.245716 0.14204 0.27596
72 3 0.238698 0.126453 0.253898
71 3 0.258221 0.146713 0.253625
46 3 0.268977 0.22217 0.245854
36 2 0.128988 0.249047 0.252478
37 3 0.156618 0.256054 0.304069
38 4 0.167661 0.230624 0.304235
40 4 0.175651 0.235836 0.309179
35 1 0.156917 0.249952 0.252084
42 2 0.1699 0.250677 0.227405
29 3 0.16749 0.263657 0.230113
33 3 0.162663 0.26097 0.277152
32 1 0.183541 0.27952 0.278905
27 1 0.187101 0.279849 0.241957
31 2 0.186092 0.30529 0.289526
41 2 0.176754 0.305528 0.286697
25 3 0.206011 0.277619 0.262467
24 2 0.167676 0.299239 0.236502
39 2 0.181129 0.307066 0.239444
23 3 0.219021 0.276892 0.287142
99 2 0.217856 0.333241 0.228855
96 3 0.269877 0.316657 0.227291
94 2 0.307778 0.299731 0.236772
95 1 0.287261 0.314176 0.249137
44 3 0.292468 0.23572 0.251849
26 4 0.224857 0.271783 0.260255
22 4 0.224605 0.271718 0.260237
43 4 0.295293 0.247641 0.277532
47 4 0.317973 0.246672 0.250767
88 3 0.274177 0.323837 0.272018
89 4 0.284417 0.318584 0.294685
85 4 0.290757 0.326682 0.288574
104 2 0.296524 0.329421 0.227576
90 1 0.249719 0.33712 0.267858
102 2 0.233759 0.342539 0.290191
86 3 0.267116 0.340643 0.293244
87 2 0.239644 0.355719 0.286183
97 4 0.261762 0.392691 0.247931
91 4 0.265806 0.389181 0.247946
93 3 0.245276 0.370484 0.244507
92 3 0.238422 0.343374 0.242801
ITEM: TIMESTEP
140000
ITEM: NUMBER OF ATOMS
105
ITEM: BOX BOUNDS pp pp pp
0.0000000000000000e+00 5.0000000000000000e+01
0.0000000000000000e+00 5.0000000000000000e+01
0.0000000000000000e+00 5.0000000000000000e+01
ITEM: ATOMS id type xs ys zs
20 2 0.12953 0.159588 0.177773
5 2 0.119206 0.157263 0.188524
13 1 0.140827 0.169521 0.201352
12 4 0.181506 0.153716 0.16976
10 4 0.184759 0.148216 0.168425
1 3 0.14077 0.143173 0.191787
7 3 0.167884 0.137591 0.188177
9 3 0.127471 0.219704 0.187246
11 1 0.150641 0.148005 0.217456
51 3 0.21314 0.206499 0.218478
55 4 0.201569 0.21415 0.194101
3 3 0.140553 0.197373 0.198057
6 2 0.14937 0.203931 0.209912
49 4 0.201152 0.208495 0.193392
15 4 0.136988 0.221102 0.160901
19 2 0.164643 0.124115 0.213279
16 1 0.136995 0.18123 0.22056
81 2 0.22744 0.123337 0.212149
67 3 0.260221 0.151757 0.216583
65 3 0.240177 0.142759 0.199683
64 4 0.250822 0.163137 0.183845
68 4 0.251275 0.162753 0.183625
74 1 0.286594 0.148737 0.208235
83 2 0.308329 0.166202 0.210209
73 2 0.309752 0.163988 0.204747
60 2 0.272009 0.21962 0.196078
48 1 0.259469 0.2178 0.220996
45 2 0.254883 0.214175 0.193721
18 4 0.105816 0.236457 0.181427
28 4 0.196138 0.277779 0.188665
34 4 0.200324 0.280023 0.193687
30 3 0.178236 0.273631 0.209662
50 3 0.233575 0.224709 0.212745
101 4 0.264138 0.289074 0.202172
103 4 0.266654 0.284653 0.202704
99 2 0.245814 0.342949 0.206335
105 2 0.229027 0.333941 0.213182
4 2 0.163562 0.123667 0.222288
8 3 0.170983 0.161802 0.253451
2 3 0.161962 0.171158 0.228505
14 4 0.176945 0.150861 0.278485
17 4 0.164092 0.173659 0.277792
21 2 0.124513 0.176923 0.245192
57 2 0.219869 0.19157 0.254884
63 2 0.221619 0.192321 0.255648
66 2 0.23171 0.113428 0.222233
56 1 0.224528 0.206354 0.231599
69 1 0.240993 0.138036 0.231745
54 3 0.230727 0.205037 0.258361
58 3 0.232058 0.208602 0.286049
84 2 0.289577 0.116278 0.252646
78 2 0.303969 0.120494 0.249261
79 3 0.313714 0.158557 0.253435
80 4 0.3256 0.175414 0.272299
82 4 0.316935 0.177887 0.273417
52 2 0.268543 0.200277 0.244291
59 4 0.246404 0.220255 0.307291
62 2 0.273279 0.205615 0.245019
75 3 0.306842 0.153217 0.226834
53 1 0.256272 0.212992 0.265952
77 1 0.288215 0.143268 0.245373
70 4 0.248849 0.141909 0.279704
76 4 0.248848 0.141959 0.279671
72 3 0.237408 0.127617 0.258485
71 3 0.261017 0.140354 0.251417
36 2 0.129538 0.246149 0.25003
37 3 0.169018 0.257483 0.303419
38 4 0.169437 0.230063 0.309181
40 4 0.175108 0.231076 0.309857
35 1 0.157437 0.247986 0.250429
42 2 0.147939 0.265193 0.230506
29 3 0.16257 0.268664 0.232281
33 3 0.162827 0.257479 0.276127
32 1 0.174841 0.282218 0.271559
27 1 0.184505 0.282793 0.242469
31 2 0.15953 0.287647 0.29432
41 2 0.150882 0.27503 0.284112
25 3 0.200645 0.274949 0.26394
24 2 0.184044 0.309819 0.249761
39 2 0.179425 0.30972 0.248154
23 3 0.2204 0.284599 0.281322
22 4 0.222624 0.271418 0.256864
100 3 0.278346 0.296803 0.224944
61 4 0.245288 0.227182 0.301927
98 1 0.25127 0.326934 0.228629
46 3 0.271104 0.224502 0.245269
96 3 0.279161 0.32442 0.229398
94 2 0.305182 0.318686 0.23651
95 1 0.285178 0.317927 0.256049
44 3 0.29432 0.23933 0.2513
26 4 0.222595 0.271114 0.256972
43 4 0.298275 0.252998 0.276102
47 4 0.31828 0.246878 0.240305
88 3 0.266884 0.327994 0.274584
89 4 0.285619 0.318503 0.311408
85 4 0.297087 0.328214 0.289435
104 2 0.308502 0.318704 0.240583
90 1 0.256658 0.352861 0.266837
102 2 0.243804 0.36242 0.289785
86 3 0.273342 0.340144 0.298655
87 2 0.235027 0.339013 0.277921
97 4 0.256329 0.404464 0.25249
91 4 0.265714 0.39951 0.249476
93 3 0.246844 0.379401 0.244513
92 3 0.253762 0.352891 0.23899
ITEM: TIMESTEP
150000
ITEM: NUMBER OF ATOMS
105
ITEM: BOX BOUNDS pp pp pp
0.0000000000000000e+00 5.0000000000000000e+01
0.0000000000000000e+00 5.0000000000000000e+01
0.0000000000000000e+00 5.0000000000000000e+01
ITEM: ATOMS id type xs ys zs
20 2 0.110327 0.16835 0.182522
21 2 0.112497 0.200619 0.215739
5 2 0.132915 0.163747 0.161545
13 1 0.137646 0.169976 0.188412
12 4 0.184275 0.141114 0.168782
10 4 0.183553 0.139298 0.168035
1 3 0.151936 0.150885 0.203696
7 3 0.171888 0.134098 0.192853
9 3 0.119193 0.218744 0.180633
51 3 0.216194 0.201595 0.221464
55 4 0.202213 0.201625 0.197333
3 3 0.121885 0.193122 0.192183
6 2 0.119721 0.205063 0.215841
49 4 0.205865 0.205353 0.195657
15 4 0.129892 0.220345 0.154876
16 1 0.130654 0.179355 0.215066
4 2 0.132278 0.134499 0.210338
67 3 0.261236 0.147349 0.215985
65 3 0.237493 0.14866 0.201479
64 4 0.254334 0.15864 0.181517
68 4 0.25471 0.158593 0.181872
74 1 0.284794 0.156482 0.204233
83 2 0.300664 0.178733 0.210151
73 2 0.309155 0.167951 0.211684
18 4 0.0997657 0.239107 0.179187
28 4 0.20159 0.272652 0.189631
34 4 0.202645 0.277019 0.195459
30 3 0.180735 0.262863 0.205331
45 2 0.264039 0.222841 0.200192
60 2 0.254677 0.223855 0.197974
50 3 0.230301 0.222435 0.208727
101 4 0.265305 0.280582 0.212643
103 4 0.266087 0.280315 0.212501
105 2 0.23595 0.32968 0.217081
99 2 0.277186 0.347207 0.219057
19 2 0.120996 0.138144 0.228903
11 1 0.148138 0.144719 0.230952
8 3 0.173391 0.170695 0.249748
2 3 0.151379 0.17245 0.232691
14 4 0.172054 0.150402 0.268733
17 4 0.160375 0.178825 0.273112
63 2 0.208821 0.216059 0.253199
66 2 0.22128 0.120591 0.242935
81 2 0.238092 0.111661 0.239841
57 2 0.225739 0.194658 0.256219
48 1 0.252518 0.217705 0.225204
56 1 0.22408 0.207453 0.231386
69 1 0.239056 0.137795 0.229889
54 3 0.232341 0.20724 0.257986
58 3 0.235006 0.20643 0.285796
84 2 0.309092 0.125573 0.245842
78 2 0.306185 0.121852 0.240904
79 3 0.307706 0.15762 0.252444
80 4 0.330629 0.170764 0.261256
82 4 0.319348 0.176025 0.269697
52 2 0.281363 0.205024 0.248175
62 2 0.278017 0.205203 0.244234
75 3 0.303467 0.154387 0.22514
53 1 0.25924 0.211202 0.264005
77 1 0.286339 0.141485 0.242573
70 4 0.253249 0.146963 0.286877
76 4 0.253107 0.147043 0.286903
72 3 0.240003 0.132627 0.266941
71 3 0.260133 0.1344 0.247636
46 3 0.274674 0.220744 0.242883
36 2 0.135976 0.25213 0.254441
37 3 0.175042 0.250917 0.300803
38 4 0.176719 0.225377 0.312994
40 4 0.175927 0.224442 0.308695
35 1 0.162923 0.250053 0.24738
42 2 0.135325 0.253331 0.244208
29 3 0.16636 0.269817 0.228041
33 3 0.163196 0.250203 0.275381
32 1 0.168591 0.277725 0.275939
27 1 0.183201 0.285939 0.243716
31 2 0.145304 0.285727 0.289249
41 2 0.159468 0.28592 0.301085
25 3 0.195182 0.276562 0.26721
24 2 0.184859 0.313865 0.24404
39 2 0.183239 0.313859 0.245501
23 3 0.217877 0.292432 0.270667
59 4 0.244811 0.224426 0.305117
22 4 0.226249 0.270566 0.255414
100 3 0.269143 0.303783 0.227716
61 4 0.237615 0.231523 0.297485
96 3 0.283433 0.327586 0.231029
94 2 0.305023 0.30804 0.25122
95 1 0.282413 0.322897 0.25831
44 3 0.292797 0.239757 0.252561
26 4 0.226086 0.270755 0.25514
43 4 0.299788 0.260101 0.270048
47 4 0.312782 0.24545 0.232213
89 4 0.284283 0.319287 0.324037
85 4 0.304415 0.328859 0.299511
104 2 0.307256 0.311846 0.251691
86 3 0.276664 0.331767 0.299906
98 1 0.256907 0.335815 0.234565
88 3 0.266107 0.338711 0.274839
90 1 0.262183 0.365168 0.266085
102 2 0.249616 0.34057 0.270344
87 2 0.242492 0.359163 0.28503
97 4 0.249138 0.410364 0.255208
91 4 0.266196 0.408119 0.250819
93 3 0.252049 0.384934 0.244144
92 3 0.266801 0.361769 0.238626
ITEM: TIMESTEP
160000
ITEM: NUMBER OF ATOMS
105
ITEM: BOX BOUNDS pp pp pp
0.0000000000000000e+00 5.0000000000000000e+01
0.0000000000000000e+00 5.0000000000000000e+01
0.0000000000000000e+00 5.0000000000000000e+01
ITEM: ATOMS id type xs ys zs
9 3 0.110985 0.209083 0.178205
20 2 0.142497 0.165207 0.165191
21 2 0.128118 0.21303 0.21929
5 2 0.112608 0.14626 0.176552
13 1 0.132706 0.159566 0.190796
12 4 0.182777 0.127468 0.174384
10 4 0.18113 0.131147 0.1712
1 3 0.156382 0.164551 0.204638
7 3 0.16788 0.141618 0.193478
51 3 0.21198 0.211734 0.219324
55 4 0.207883 0.197165 0.195748
3 3 0.1199 0.183475 0.184669
49 4 0.202503 0.199203 0.196234
16 1 0.124877 0.186201 0.212156
19 2 0.118274 0.13855 0.219915
67 3 0.261006 0.149291 0.216004
65 3 0.240287 0.140592 0.199127
64 4 0.253812 0.154273 0.178837
68 4 0.253601 0.154779 0.179069
74 1 0.282198 0.162865 0.20326
83 2 0.307639 0.173252 0.197978
73 2 0.302478 0.181467 0.198161
50 3 0.235371 0.208033 0.204848
48 1 0.255622 0.216186 0.222053
18 4 0.102642 0.235523 0.174466
15 4 0.122026 0.222934 0.156508
28 4 0.203649 0.269225 0.194867
34 4 0.201703 0.273259 0.195485
30 3 0.177847 0.258776 0.197764
60 2 0.26367 0.22408 0.196464
45 2 0.269833 0.23212 0.204024
101 4 0.270872 0.285737 0.213988
103 4 0.266964 0.286295 0.211283
100 3 0.269948 0.313569 0.217125
99 2 0.266364 0.365158 0.212973
6 2 0.107088 0.195759 0.231487
4 2 0.121242 0.141228 0.23858
11 1 0.143864 0.149167 0.22417
8 3 0.162238 0.169983 0.246483
2 3 0.137695 0.174764 0.234139
14 4 0.170797 0.149855 0.263732
17 4 0.154044 0.183911 0.269174
66 2 0.220465 0.140969 0.24808
40 4 0.177071 0.217501 0.311169
57 2 0.214845 0.198801 0.252835
38 4 0.181386 0.221507 0.315414
63 2 0.22392 0.191625 0.251281
81 2 0.243298 0.114372 0.241436
56 1 0.228955 0.211644 0.232353
69 1 0.237924 0.137409 0.226564
54 3 0.24102 0.205119 0.25681
58 3 0.234565 0.21157 0.283069
84 2 0.300106 0.112553 0.235688
78 2 0.297977 0.113554 0.257721
79 3 0.308598 0.154462 0.2514
80 4 0.331735 0.169522 0.251163
82 4 0.322371 0.172656 0.267938
52 2 0.274562 0.197605 0.262324
62 2 0.269076 0.197585 0.25671
75 3 0.295815 0.154719 0.226397
53 1 0.259942 0.219658 0.27124
77 1 0.286875 0.135548 0.244517
70 4 0.258703 0.150717 0.294501
76 4 0.258565 0.150643 0.294571
72 3 0.246946 0.143891 0.269933
71 3 0.258983 0.137899 0.245129
46 3 0.270195 0.214556 0.245666
36 2 0.138884 0.246058 0.254717
37 3 0.176894 0.241575 0.296612
35 1 0.164216 0.249519 0.243379
42 2 0.146512 0.254045 0.264686
29 3 0.173021 0.267711 0.223854
33 3 0.166806 0.242411 0.270389
32 1 0.168544 0.267474 0.282461
27 1 0.184652 0.287014 0.240429
31 2 0.18091 0.292458 0.284092
41 2 0.183022 0.280025 0.302828
25 3 0.189025 0.278594 0.266703
24 2 0.185607 0.314972 0.240715
39 2 0.191606 0.313394 0.234259
23 3 0.208252 0.298619 0.263158
59 4 0.243317 0.230686 0.300728
22 4 0.222953 0.274762 0.2633
61 4 0.243044 0.226402 0.306019
96 3 0.286402 0.329953 0.233053
94 2 0.303672 0.323183 0.245713
95 1 0.280719 0.330121 0.260187
44 3 0.292123 0.231231 0.252605
26 4 0.223126 0.274928 0.263399
43 4 0.296097 0.256804 0.262897
47 4 0.310787 0.241341 0.234346
89 4 0.278957 0.323898 0.324029
85 4 0.302593 0.331086 0.314843
104 2 0.302601 0.313863 0.253909
86 3 0.283919 0.321582 0.296239
105 2 0.243278 0.364496 0.227819
98 1 0.263852 0.346455 0.233614
88 3 0.277548 0.345624 0.283209
90 1 0.265722 0.366643 0.268839
102 2 0.243726 0.367754 0.286142
87 2 0.281036 0.375225 0.290627
97 4 0.242065 0.412058 0.25605
91 4 0.267507 0.415752 0.252769
93 3 0.257292 0.391036 0.24532
92 3 0.275498 0.370142 0.242719
ITEM: TIMESTEP
170000
ITEM: NUMBER OF ATOMS
105
ITEM: BOX BOUNDS pp pp pp
0.0000000000000000e+00 5.0000000000000000e+01
0.0000000000000000e+00 5.0000000000000000e+01
0.0000000000000000e+00 5.0000000000000000e+01
ITEM: ATOMS id type xs ys zs
9 3 0.108448 0.201205 0.175599
5 2 0.0987307 0.147489 0.166088
20 2 0.139954 0.168223 0.172311
13 1 0.120937 0.150548 0.182836
12 4 0.177713 0.118175 0.183564
10 4 0.182467 0.12281 0.175135
1 3 0.144046 0.15244 0.198435
7 3 0.166935 0.143928 0.184531
51 3 0.213801 0.203777 0.221086
55 4 0.220918 0.207804 0.194199
3 3 0.122593 0.178556 0.183159
49 4 0.207841 0.197867 0.194453
16 1 0.119032 0.188474 0.209056
19 2 0.152875 0.137552 0.219399
67 3 0.263301 0.150539 0.213493
65 3 0.245763 0.134431 0.198682
64 4 0.248744 0.146866 0.173823
68 4 0.247872 0.146813 0.173668
74 1 0.289208 0.153518 0.203976
83 2 0.297256 0.177757 0.192587
73 2 0.296162 0.17849 0.193487
50 3 0.237212 0.211428 0.208917
18 4 0.108125 0.227676 0.167501
15 4 0.113435 0.225691 0.163155
28 4 0.20137 0.267734 0.202711
34 4 0.202563 0.265909 0.196165
30 3 0.174776 0.264765 0.194426
48 1 0.258485 0.226365 0.219256
60 2 0.275148 0.241518 0.202667
45 2 0.278372 0.240852 0.205922
101 4 0.267341 0.295544 0.211878
103 4 0.263933 0.296261 0.211475
100 3 0.269295 0.323679 0.212093
105 2 0.250279 0.355481 0.219297
78 2 0.282963 0.109727 0.26529
6 2 0.0997914 0.199405 0.22613
4 2 0.107327 0.140494 0.235069
21 2 0.114288 0.209496 0.226968
11 1 0.12943 0.152199 0.222573
8 3 0.151524 0.167916 0.249107
2 3 0.132859 0.178411 0.231299
14 4 0.171616 0.157215 0.265114
17 4 0.139256 0.181052 0.270505
40 4 0.179595 0.217769 0.315701
57 2 0.213811 0.199199 0.258294
38 4 0.178438 0.218705 0.315604
63 2 0.213967 0.214752 0.258606
84 2 0.298172 0.112905 0.260745
66 2 0.228444 0.148337 0.248158
81 2 0.243241 0.111354 0.228579
56 1 0.226972 0.207454 0.234958
69 1 0.240986 0.13898 0.225012
54 3 0.244055 0.213262 0.256483
58 3 0.239463 0.21822 0.284152
79 3 0.313323 0.150332 0.245332
80 4 0.331619 0.171807 0.242981
82 4 0.323972 0.166876 0.264793
52 2 0.263396 0.201009 0.256626
62 2 0.26629 0.200094 0.2583
75 3 0.28881 0.153725 0.232111
77 1 0.282195 0.133414 0.250389
70 4 0.263113 0.154154 0.298783
76 4 0.263115 0.153987 0.298832
72 3 0.255594 0.148007 0.272678
71 3 0.258819 0.147952 0.244911
46 3 0.263814 0.215947 0.244878
61 4 0.25044 0.212989 0.308823
44 3 0.290715 0.221964 0.251038
36 2 0.147841 0.232483 0.257493
37 3 0.173018 0.228997 0.290415
35 1 0.159317 0.253134 0.242492
42 2 0.145529 0.237873 0.261464
29 3 0.177242 0.261383 0.222286
33 3 0.170634 0.243501 0.26634
32 1 0.180233 0.262884 0.283904
27 1 0.188803 0.282762 0.236238
31 2 0.157703 0.262071 0.300499
41 2 0.16702 0.280294 0.301347
25 3 0.18947 0.280151 0.263983
24 2 0.172403 0.303031 0.246415
39 2 0.17333 0.30573 0.240111
23 3 0.20759 0.299167 0.25419
53 1 0.264758 0.224932 0.271095
59 4 0.243795 0.237063 0.305151
22 4 0.231132 0.28785 0.26425
96 3 0.281353 0.330231 0.236389
94 2 0.289427 0.307905 0.271305
26 4 0.230933 0.288109 0.265121
43 4 0.290338 0.250141 0.255356
47 4 0.314535 0.232873 0.242188
89 4 0.274037 0.325749 0.316298
85 4 0.292281 0.329041 0.323821
104 2 0.292098 0.307987 0.267664
86 3 0.293983 0.318928 0.297702
99 2 0.247225 0.356981 0.232707
95 1 0.282561 0.334032 0.263984
98 1 0.275179 0.357274 0.231949
88 3 0.28939 0.345111 0.288569
90 1 0.271916 0.360688 0.273607
102 2 0.264294 0.384531 0.285922
87 2 0.297362 0.370688 0.267619
97 4 0.237111 0.415211 0.254844
91 4 0.269187 0.424593 0.254316
93 3 0.259399 0.399449 0.247618
92 3 0.276073 0.377212 0.251564
ITEM: TIMESTEP
180000
ITEM: NUMBER OF ATOMS
105
ITEM: BOX BOUNDS pp pp pp
0.0000000000000000e+00 5.0000000000000000e+01
0.0000000000000000e+00 5.0000000000000000e+01
0.0000000000000000e+00 5.0000000000000000e+01
ITEM: ATOMS id type xs ys zs
5 2 0.0957823 0.156326 0.163323
4 2 0.107489 0.134666 0.217265
21 2 0.0909893 0.183552 0.198725
9 3 0.111956 0.19705 0.169121
20 2 0.117382 0.13638 0.153576
13 1 0.118899 0.150303 0.17782
12 4 0.175131 0.116858 0.189058
10 4 0.180938 0.121194 0.183365
1 3 0.135008 0.134743 0.194765
7 3 0.16009 0.139601 0.183307
51 3 0.220512 0.19433 0.220594
3 3 0.125144 0.177154 0.184251
49 4 0.21282 0.195526 0.194133
16 1 0.11679 0.187313 0.208918
11 1 0.125058 0.155558 0.211138
18 4 0.115487 0.221624 0.155823
19 2 0.115219 0.131572 0.221592
55 4 0.224958 0.207419 0.195853
67 3 0.26753 0.147814 0.211554
65 3 0.246766 0.136484 0.196867
64 4 0.240429 0.139492 0.169912
68 4 0.239583 0.138709 0.170025
74 1 0.295597 0.15109 0.211909
83 2 0.279286 0.171655 0.202211
73 2 0.282255 0.175348 0.208172
50 3 0.234423 0.217304 0.213714
81 2 0.230528 0.111915 0.220713
60 2 0.27794 0.222029 0.194121
15 4 0.104433 0.223468 0.174367
28 4 0.200442 0.265868 0.199237
34 4 0.20047 0.266329 0.198154
30 3 0.172511 0.267402 0.199301
29 3 0.180868 0.252989 0.22182
48 1 0.258179 0.231238 0.211618
45 2 0.279017 0.234872 0.193325
101 4 0.261131 0.305353 0.206749
103 4 0.260806 0.305337 0.207511
100 3 0.266499 0.331792 0.214431
6 2 0.102136 0.205006 0.22483