LAMMPS (16 Mar 2018)
OMP_NUM_THREADS environment is not set. Defaulting to 1 thread. (../comm.cpp:90)
  using 1 OpenMP thread(s) per MPI task
Reading data file ...
  orthogonal box = (0 0 0) to (50 50 50)
  1 by 1 by 1 MPI processor grid
  reading atoms ...
  105 atoms
  scanning bonds ...
  3 = max bonds/atom
  reading bonds ...
  105 bonds
Finding 1-2 1-3 1-4 neighbors ...
  special bond factors lj:   0          0          0         
  special bond factors coul: 0          0          0         
  4 = max # of 1-2 neighbors
  8 = max # of 1-3 neighbors
  14 = max # of 1-4 neighbors
  17 = max # of special neighbors
Neighbor list info ...
  update every 10 steps, delay 0 steps, check no
  max neighbors/atom: 2000, page size: 100000
  master list distance cutoff = 11
  ghost atom cutoff = 11
  binsize = 5.5, bins = 10 10 10
  1 neighbor lists, perpetual/occasional/extra = 1 0 0
  (1) pair lj/cut, perpetual
      attributes: half, newton on
      pair build: half/bin/newton
      stencil: half/bin/3d/newton
      bin: standard
Setting up Verlet run ...
  Unit style    : real
  Current step  : 0
  Time step     : 1
Per MPI rank memory allocation (min/avg/max) = 6.516 | 6.516 | 6.516 Mbytes
Step Temp E_pair E_mol TotEng Press 
       0            0    20.446098    1372.0205    1392.4666    1976.1931 
  100000    9.5248884   -137.48954   0.20643084   -134.33035    2.1563175 
Loop time of 4.04728 on 1 procs for 100000 steps with 105 atoms

Performance: 2134.766 ns/day, 0.011 hours/ns, 24707.934 timesteps/s
100.0% CPU use with 1 MPI tasks x 1 OpenMP threads

MPI task timing breakdown:
Section |  min time  |  avg time  |  max time  |%varavg| %total
---------------------------------------------------------------
Pair    | 2.9268     | 2.9268     | 2.9268     |   0.0 | 72.32
Bond    | 0.10736    | 0.10736    | 0.10736    |   0.0 |  2.65
Neigh   | 0.75355    | 0.75355    | 0.75355    |   0.0 | 18.62
Comm    | 0.10554    | 0.10554    | 0.10554    |   0.0 |  2.61
Output  | 3.6001e-05 | 3.6001e-05 | 3.6001e-05 |   0.0 |  0.00
Modify  | 0.12223    | 0.12223    | 0.12223    |   0.0 |  3.02
Other   |            | 0.03173    |            |       |  0.78

Nlocal:    105 ave 105 max 105 min
Histogram: 1 0 0 0 0 0 0 0 0 0
Nghost:    176 ave 176 max 176 min
Histogram: 1 0 0 0 0 0 0 0 0 0
Neighs:    4873 ave 4873 max 4873 min
Histogram: 1 0 0 0 0 0 0 0 0 0

Total # of neighbors = 4873
Ave neighs/atom = 46.4095
Ave special neighs/atom = 9.71429
Neighbor list builds = 10000
Dangerous builds not checked
Setting up Verlet run ...
  Unit style    : real
  Current step  : 100000
  Time step     : 0.01
Per MPI rank memory allocation (min/avg/max) = 7.52 | 7.52 | 7.52 Mbytes
Step PotEng KinEng TotEng Temp Volume Press 
  100000   -137.28311    2.9527558   -134.33035    9.5248884       125000    2.1563175 
  110000   -114.43166    31.421929   -83.009736    101.35967       125000    34.934487 
  120000   -112.20822    41.351918     -70.8563    133.39146       125000    6.9051975 
  130000   -100.03257    35.445692   -64.586878    114.33938       125000   -25.659167 
  140000   -91.281542    39.947976   -51.333566    128.86267       125000   -3.9879367 
  150000   -83.328423    46.843265   -36.485158    151.10524       125000   -2.3724019 
  160000   -78.236856    47.764088   -30.472769    154.07559       125000   -6.5317836 
  170000   -75.312272    45.470688   -29.841585    146.67763       125000   -20.838467 
  180000   -67.011015    58.477736   -8.5332781    188.63528       125000    -4.522542 
  190000   -61.694108    49.854825   -11.839283    160.81981       125000   -7.7838172 
  200000   -63.050948    65.589395    2.5384464     211.5758       125000   -31.813663 
  210000   -58.557611    56.272334   -2.2852774    181.52117       125000   -10.975542 
  220000   -61.551327    66.375062    4.8237345    214.11017       125000   -3.8513584 
  230000   -67.648268    67.504851  -0.14341731     217.7546       125000    -1.331422 
  240000   -60.112072    68.052302    7.9402301    219.52055       125000    4.2091954 
  250000   -57.315189    79.767971    22.452782    257.31251       125000   -24.790311 
  260000   -51.790443    85.105295    33.314853    274.52945       125000    3.4921554 
  270000   -51.767973    80.706469    28.938495    260.33988       125000   -42.285252 
  280000   -54.083307     74.37477    20.291463    239.91533       125000   -102.13788 
  290000   -49.294595    85.099576     35.80498      274.511       125000   -58.399494 
  300000   -44.015164    99.928704    55.913541    322.34624       125000    11.278813 
  310000   -46.953922     85.57497    38.621048    276.04451       125000   -61.496907 
  320000   -38.253928    78.786721    40.532794    254.14723       125000    9.9062023 
  330000   -38.870636    105.09756    66.226927    339.01975       125000   -1.7743098 
  340000   -45.187336    101.09281    55.905478    326.10138       125000    10.273707 
  350000   -43.298679    98.047467    54.748788    316.27782       125000    16.165203 
  360000   -32.189435    119.07107    86.881638    384.09498       125000   -9.6296237 
  370000   -37.765676    106.24207    68.476392    342.71166       125000    -10.56912 
  380000   -36.921181    96.954945    60.033764     312.7536       125000     36.01245 
  390000   -35.909054    119.84922    83.940167     386.6051       125000   -18.556875 
  400000   -36.924858    119.26046    82.335598    384.70588       125000    31.230483 
  410000   -35.542823    109.51447    73.971647    353.26765       125000    22.082015 
  420000   -21.290016     106.7966     85.50658    344.50043       125000    26.290113 
  430000   -28.760374     132.0669    103.30653    426.01643       125000    18.720369 
  440000   -17.464281    107.57667    90.112385    347.01675       125000   -2.2045664 
  450000   -24.749071    133.37339    108.62432    430.23084       125000    46.499162 
  460000   -20.102353    122.43974    102.33739     394.9615       125000   -18.867117 
  470000   -37.037705    124.76795    87.730244    402.47174       125000    17.168126 
  480000   -29.799336    131.31425    101.51492    423.58856       125000   -5.1274698 
  490000   -21.932085    140.47714    118.54505    453.14586       125000    78.356289 
  500000   -30.438953    136.60214    106.16319    440.64603       125000   -34.404617 
  510000   -20.183176    155.31959    135.13641    501.02408       125000   -78.329281 
  520000   -25.471336    145.94671    120.47538     470.7894       125000    95.728466 
  530000   -20.109658    152.57268    132.46302    492.16321       125000    27.739738 
  540000   -26.751113    134.24277    107.49166    433.03527       125000    63.964399 
  550000   -36.330499    174.10504    137.77454    561.62148       125000     -31.0841 
  560000   -30.584914    168.47148    137.88657    543.44896       125000    21.794775 
  570000   -21.031418    147.35927    126.32785    475.34598       125000   -14.962346 
  580000   -2.4676959    168.48406    166.01637    543.48953       125000   -31.002338 
  590000   -11.836797    170.89227    159.05547    551.25784       125000   -13.586966 
  600000    -20.82058    171.48953    150.66895    553.18447       125000    -13.47026 
  610000    3.9482177      175.889    179.83722     567.3761       125000    7.0960333 
  620000    3.5650993    165.41465    168.97975    533.58833       125000   -30.571833 
  630000    8.9076316    179.38814    188.29577    578.66349       125000      83.5216 
  640000     9.735049    180.98495       190.72    583.81442       125000   -55.121278 
  650000     8.886217    180.71096    189.59717    582.93059       125000    51.363904 
  660000    25.653214    183.47303    209.12624    591.84037       125000   -19.967183 
  670000    14.699466    185.36765    200.06712    597.95198       125000   -34.818182 
  680000    24.068744    190.85861    214.92736    615.66451       125000   -72.784198 
  690000    30.477381    165.67005    196.14743    534.41219       125000    20.203394 
  700000    15.006202    218.36578    233.37198    704.39608       125000    17.221069 
  710000    22.978935    186.59704    209.57598    601.91771       125000    110.32317 
  720000    36.925608    192.77756    229.70317     621.8546       125000   -16.481528 
  730000    24.717815      221.315    246.03282    713.90959       125000   -6.3654187 
  740000    22.319764    212.84646    235.16622    686.59207       125000   -8.2951392 
  750000    27.459727    204.94053    232.40026    661.08943       125000   -150.67409 
  760000     27.68566    233.34692    261.03258    752.72169       125000    50.821188 
  770000    32.608198     213.2266     245.8348    687.81831       125000    147.90972 
  780000    51.487656    229.92763    281.41529    741.69187       125000   -162.04325 
  790000    42.848973    245.44071    288.28968    791.73337       125000   -118.17459 
  800000    50.080973    214.93755    265.01853    693.33746       125000   -61.565538 
  810000    50.851281    242.19074    293.04202    781.24975       125000   -15.949258 
  820000    45.083422     239.8306    284.91402    773.63649       125000    -5.587493 
  830000    37.253489     233.6567    270.91019    753.72098       125000    47.517825 
  840000    52.295867    233.76314    286.05901    754.06432       125000   -16.683554 
  850000    46.465667    242.59561    289.06128    782.55578       125000    33.215907 
  860000    47.322002    272.78792    320.10992    879.94899       125000   -1.2298744 
  870000    42.461331    240.99065    283.45198    777.37855       125000   -18.972303 
  880000    39.437301    245.08786    284.52516    790.59519       125000   -67.872554 
  890000    47.768059    249.46332    297.23138    804.70938       125000   -99.006514 
  900000     37.11097    232.15505    269.26602    748.87701       125000    21.671241 
  910000    54.814944    266.25207    321.06701    858.86587       125000    43.109086 
  920000    66.745516    277.84851    344.59403    896.27324       125000   -116.06965 
  930000    47.035018    234.90951    281.94453    757.76223       125000     98.29518 
  940000     79.07303     272.8442    351.91723    880.13052       125000   -46.664139 
  950000     73.37697    269.24222    342.61919     868.5114       125000    59.864921 
  960000    65.642129    262.40411    328.04624    846.45328       125000     138.9591 
  970000    56.231193    284.36093    340.59212    917.28076       125000   -65.040737 
  980000    60.514489    268.80367    329.31816    867.09673       125000   -82.290792 
  990000    81.513924    270.31371    351.82763    871.96777       125000    93.366183 
 1000000    70.041612    268.57434    338.61595    866.35697       125000   -116.58894 
 1010000    71.296621    253.14632    324.44294    816.58985       125000      85.4738 
 1020000    78.845849    267.57117    346.41702    863.12098       125000    76.657649 
 1030000    68.175764    244.05169    312.22745    787.25273       125000      6.10923 
 1040000    86.540938    272.98094    359.52188    880.57162       125000    21.669421 
 1050000    87.301623     271.5391    358.84072    875.92059       125000    7.3230676 
 1060000    107.58888    324.60076    432.18964    1047.0849       125000     162.8347 
 1070000    83.252464    284.65285    367.90532    918.22243       125000   -26.008248 
 1080000    112.46211    348.41063    460.87275    1123.8899       125000    145.00628 
 1090000    89.209971    321.03281    410.24278    1035.5755       125000    49.788375 
 1100000    89.075813    291.88139    380.95721    941.53999       125000    23.098003 
Loop time of 42.1532 on 1 procs for 1000000 steps with 105 atoms

Performance: 20.497 ns/day, 1.171 hours/ns, 23722.994 timesteps/s
100.0% CPU use with 1 MPI tasks x 1 OpenMP threads

MPI task timing breakdown:
Section |  min time  |  avg time  |  max time  |%varavg| %total
---------------------------------------------------------------
Pair    | 29.366     | 29.366     | 29.366     |   0.0 | 69.66
Bond    | 1.0729     | 1.0729     | 1.0729     |   0.0 |  2.55
Neigh   | 8.5713     | 8.5713     | 8.5713     |   0.0 | 20.33
Comm    | 1.186      | 1.186      | 1.186      |   0.0 |  2.81
Output  | 0.010515   | 0.010515   | 0.010515   |   0.0 |  0.02
Modify  | 1.6124     | 1.6124     | 1.6124     |   0.0 |  3.83
Other   |            | 0.3343     |            |       |  0.79

Nlocal:    105 ave 105 max 105 min
Histogram: 1 0 0 0 0 0 0 0 0 0
Nghost:    272 ave 272 max 272 min
Histogram: 1 0 0 0 0 0 0 0 0 0
Neighs:    1862 ave 1862 max 1862 min
Histogram: 1 0 0 0 0 0 0 0 0 0

Total # of neighbors = 1862
Ave neighs/atom = 17.7333
Ave special neighs/atom = 9.71429
Neighbor list builds = 100000
Dangerous builds not checked
Total wall time: 0:00:46
