LAMMPS data file. CGCMM style. atom_style full generated by VMD/TopoTools v1.7 on Mon Mar 22 02:12:33 -0500 2021
 105 atoms
 105 bonds
 0 angles
 0 dihedrals
 0 impropers
 4 atom types
 1 bond types
 0 angle types
 0 dihedral types
 0 improper types
 0.0 50.0  xlo xhi
 0.0 50.0  ylo yhi
 0.0 50.0  zlo zhi

# Pair Coeffs
#
# 1  C
# 2  H
# 3  N
# 4  O

# Bond Coeffs
#
# 1  

 Masses

 1 12.010700 # C
 2 1.007940 # H
 3 14.006700 # N
 4 15.999400 # O

 Atoms # full

1 1 3 0.000000 4.559000 5.578000 11.236000 # N UNL
2 1 3 0.000000 2.820000 4.105000 12.029000 # N UNL
3 1 3 0.000000 2.294000 6.384000 11.447000 # N UNL
4 1 2 0.000000 4.812000 3.575000 11.740000 # H UNL
5 1 2 0.000000 3.908000 7.491000 10.740000 # H UNL
6 1 2 0.000000 0.927000 4.969000 12.129000 # H UNL
7 1 3 0.000000 5.908000 5.878000 11.188000 # N UNL
8 1 3 0.000000 2.483000 2.971000 12.745000 # N UNL
9 1 3 0.000000 1.445000 7.466000 11.595000 # N UNL
10 1 4 0.000000 6.691000 4.957000 11.428000 # O UNL
11 1 1 0.000000 4.240000 4.442000 12.097000 # C UNL
12 1 4 0.000000 6.211000 7.038000 10.907000 # O UNL
13 1 1 0.000000 3.710000 6.735000 11.511000 # C UNL
14 1 4 0.000000 3.378000 2.145000 12.934000 # O UNL
15 1 4 0.000000 1.891000 8.568000 11.278000 # O UNL
16 1 1 0.000000 1.971000 5.258000 12.319000 # C UNL
17 1 4 0.000000 1.315000 2.882000 13.128000 # O UNL
18 1 4 0.000000 0.315000 7.231000 12.025000 # O UNL
19 1 2 0.000000 4.541000 4.646000 13.135000 # H UNL
20 1 2 0.000000 3.957000 7.173000 12.490000 # H UNL
21 1 2 0.000000 2.056000 5.548000 13.377000 # H UNL
22 2 4 0.000000 6.124000 18.629999 10.289000 # O UNL
23 2 3 0.000000 5.821000 17.469999 10.570000 # N UNL
24 2 2 0.000000 3.821000 19.083000 10.122000 # H UNL
25 2 3 0.000000 4.472000 17.170000 10.618000 # N UNL
26 2 4 0.000000 6.604000 16.549000 10.810000 # O UNL
27 2 1 0.000000 3.623000 18.327000 10.893000 # C UNL
28 2 4 0.000000 1.804000 20.160000 10.660000 # O UNL
29 2 3 0.000000 2.207000 17.976000 10.829000 # N UNL
30 2 3 0.000000 1.358000 19.058001 10.977000 # N UNL
31 2 2 0.000000 4.725000 15.167000 11.122000 # H UNL
32 2 1 0.000000 4.153000 16.034000 11.479000 # C UNL
33 2 3 0.000000 2.733000 15.697000 11.411000 # N UNL
34 2 4 0.000000 0.228000 18.823000 11.407000 # O UNL
35 2 1 0.000000 1.884000 16.850000 11.701000 # C UNL
36 2 2 0.000000 0.840000 16.561001 11.511000 # H UNL
37 2 3 0.000000 2.396000 14.563000 12.127000 # N UNL
38 2 4 0.000000 3.291000 13.737000 12.316000 # O UNL
39 2 2 0.000000 3.870000 18.764999 11.872000 # H UNL
40 2 4 0.000000 1.228000 14.474000 12.510000 # O UNL
41 2 2 0.000000 4.454000 16.238001 12.517000 # H UNL
42 2 2 0.000000 1.969000 17.139999 12.759000 # H UNL
43 3 4 0.000000 14.412000 13.007000 11.056000 # O UNL
44 3 3 0.000000 14.109000 11.847000 11.337000 # N UNL
45 3 2 0.000000 12.109000 13.460000 10.889000 # H UNL
46 3 3 0.000000 12.760000 11.547000 11.385000 # N UNL
47 3 4 0.000000 14.892000 10.926000 11.577000 # O UNL
48 3 1 0.000000 11.911000 12.704000 11.660000 # C UNL
49 3 4 0.000000 10.092000 14.537000 11.427000 # O UNL
50 3 3 0.000000 10.495000 12.353000 11.596000 # N UNL
51 3 3 0.000000 9.646000 13.435000 11.744000 # N UNL
52 3 2 0.000000 13.013000 9.544000 11.889000 # H UNL
53 3 1 0.000000 12.441000 10.411000 12.246000 # C UNL
54 3 3 0.000000 11.021000 10.074000 12.178000 # N UNL
55 3 4 0.000000 8.516000 13.200000 12.174000 # O UNL
56 3 1 0.000000 10.172000 11.227000 12.468000 # C UNL
57 3 2 0.000000 9.128000 10.938000 12.278000 # H UNL
58 3 3 0.000000 10.684000 8.940000 12.894000 # N UNL
59 3 4 0.000000 11.579000 8.114000 13.083000 # O UNL
60 3 2 0.000000 12.158000 13.142000 12.639000 # H UNL
61 3 4 0.000000 9.516000 8.851000 13.277000 # O UNL
62 3 2 0.000000 12.742000 10.615000 13.284000 # H UNL
63 3 2 0.000000 10.257000 11.517000 13.526000 # H UNL
64 4 4 0.000000 23.004999 5.369000 11.948000 # O UNL
65 4 3 0.000000 22.702000 4.209000 12.229000 # N UNL
66 4 2 0.000000 20.702000 5.822000 11.781000 # H UNL
67 4 3 0.000000 21.353001 3.909000 12.277000 # N UNL
68 4 4 0.000000 23.485001 3.288000 12.469000 # O UNL
69 4 1 0.000000 20.504000 5.066000 12.552000 # C UNL
70 4 4 0.000000 18.684999 6.899000 12.319000 # O UNL
71 4 3 0.000000 19.087999 4.715000 12.488000 # N UNL
72 4 3 0.000000 18.239000 5.797000 12.636000 # N UNL
73 4 2 0.000000 21.606001 1.906000 12.781000 # H UNL
74 4 1 0.000000 21.034000 2.773000 13.138000 # C UNL
75 4 3 0.000000 19.614000 2.436000 13.070000 # N UNL
76 4 4 0.000000 17.108999 5.562000 13.066000 # O UNL
77 4 1 0.000000 18.764999 3.589000 13.360000 # C UNL
78 4 2 0.000000 17.721001 3.300000 13.170000 # H UNL
79 4 3 0.000000 19.277000 1.302000 13.786000 # N UNL
80 4 4 0.000000 20.172001 0.476000 13.975000 # O UNL
81 4 2 0.000000 20.750999 5.504000 13.531000 # H UNL
82 4 4 0.000000 18.108999 1.213000 14.169000 # O UNL
83 4 2 0.000000 21.334999 2.977000 14.176000 # H UNL
84 4 2 0.000000 18.850000 3.879000 14.418000 # H UNL
85 5 4 0.000000 21.327000 21.386000 11.005000 # O UNL
86 5 3 0.000000 21.024000 20.226000 11.286000 # N UNL
87 5 2 0.000000 19.024000 21.839001 10.838000 # H UNL
88 5 3 0.000000 19.674999 19.926001 11.334000 # N UNL
89 5 4 0.000000 21.806999 19.305000 11.526000 # O UNL
90 5 1 0.000000 18.826000 21.083000 11.609000 # C UNL
91 5 4 0.000000 17.007000 22.916000 11.376000 # O UNL
92 5 3 0.000000 17.410000 20.732000 11.545000 # N UNL
93 5 3 0.000000 16.561001 21.813999 11.693000 # N UNL
94 5 2 0.000000 19.927999 17.923000 11.838000 # H UNL
95 5 1 0.000000 19.356001 18.790001 12.195000 # C UNL
96 5 3 0.000000 17.936001 18.452999 12.127000 # N UNL
97 5 4 0.000000 15.431000 21.579000 12.123000 # O UNL
98 5 1 0.000000 17.087000 19.606001 12.417000 # C UNL
99 5 2 0.000000 16.042999 19.316999 12.227000 # H UNL
100 5 3 0.000000 17.599001 17.319000 12.843000 # N UNL
101 5 4 0.000000 18.493999 16.493000 13.032000 # O UNL
102 5 2 0.000000 19.073000 21.521000 12.588000 # H UNL
103 5 4 0.000000 16.431000 17.230000 13.226000 # O UNL
104 5 2 0.000000 19.657000 18.993999 13.233000 # H UNL
105 5 2 0.000000 17.172001 19.896000 13.475000 # H UNL

 Bonds

1 1 1 13
2 1 1 7
3 1 1 11
4 1 2 11
5 1 2 8
6 1 2 16
7 1 3 9
8 1 3 13
9 1 3 16
10 1 4 11
11 1 5 13
12 1 6 16
13 1 7 10
14 1 7 12
15 1 8 17
16 1 8 14
17 1 9 18
18 1 9 15
19 1 11 19
20 1 13 20
21 1 16 21
22 1 22 23
23 1 23 26
24 1 23 25
25 1 24 27
26 1 25 27
27 1 25 32
28 1 27 39
29 1 27 29
30 1 28 30
31 1 29 30
32 1 29 35
33 1 30 34
34 1 31 32
35 1 32 41
36 1 32 33
37 1 33 37
38 1 33 35
39 1 35 42
40 1 35 36
41 1 37 40
42 1 37 38
43 1 43 44
44 1 44 47
45 1 44 46
46 1 45 48
47 1 46 48
48 1 46 53
49 1 48 60
50 1 48 50
51 1 49 51
52 1 50 51
53 1 50 56
54 1 51 55
55 1 52 53
56 1 53 62
57 1 53 54
58 1 54 58
59 1 54 56
60 1 56 63
61 1 56 57
62 1 58 61
63 1 58 59
64 1 64 65
65 1 65 68
66 1 65 67
67 1 66 69
68 1 67 69
69 1 67 74
70 1 69 81
71 1 69 71
72 1 70 72
73 1 71 72
74 1 71 77
75 1 72 76
76 1 73 74
77 1 74 83
78 1 74 75
79 1 75 79
80 1 75 77
81 1 77 84
82 1 77 78
83 1 79 82
84 1 79 80
85 1 85 86
86 1 86 89
87 1 86 88
88 1 87 90
89 1 88 90
90 1 88 95
91 1 90 102
92 1 90 92
93 1 91 93
94 1 92 93
95 1 92 98
96 1 93 97
97 1 94 95
98 1 95 104
99 1 95 96
100 1 96 100
101 1 96 98
102 1 98 105
103 1 98 99
104 1 100 103
105 1 100 101

