ITEM: TIMESTEP
1000000
ITEM: NUMBER OF ATOMS
105
ITEM: BOX BOUNDS pp pp pp
0.0000000000000000e+00 5.0000000000000000e+01
0.0000000000000000e+00 5.0000000000000000e+01
0.0000000000000000e+00 5.0000000000000000e+01
ITEM: ATOMS id type xs ys zs
18 4 0.137851 0.222326 0.121775
73 2 0.293125 0.119399 0.205518
83 2 0.324806 0.122245 0.218716
80 4 0.384286 0.121539 0.241629
16 1 0.0879187 0.236695 0.232779
3 3 0.0865249 0.235461 0.203416
11 1 0.10294 0.189293 0.234743
1 3 0.102453 0.186818 0.205528
13 1 0.099263 0.212015 0.190772
5 2 0.0902511 0.207702 0.170925
4 2 0.0974766 0.170221 0.2446
2 3 0.0888764 0.211519 0.248053
20 2 0.119477 0.218832 0.184792
19 2 0.124265 0.191435 0.24074
21 2 0.106518 0.248032 0.237414
33 3 0.16324 0.219128 0.216491
42 2 0.169837 0.188959 0.186831
35 1 0.180995 0.204863 0.198069
36 2 0.194129 0.192451 0.211148
45 2 0.242861 0.209708 0.228305
29 3 0.198326 0.220756 0.179797
48 1 0.239169 0.196234 0.245677
31 2 0.184 0.241877 0.245637
46 3 0.237475 0.168335 0.23647
9 3 0.152883 0.215709 0.141791
15 4 0.170929 0.233122 0.148074
32 1 0.172971 0.245102 0.226328
24 2 0.226741 0.242564 0.201274
61 4 0.243764 0.19534 0.169309
52 2 0.220011 0.130693 0.246488
12 4 0.170118 0.158057 0.248898
27 1 0.207726 0.246905 0.190487
74 1 0.305158 0.132792 0.218509
58 3 0.267618 0.190012 0.177979
59 4 0.269085 0.169705 0.193917
67 3 0.309691 0.159154 0.205673
104 2 0.292179 0.235137 0.239874
101 4 0.298705 0.232165 0.172366
66 2 0.313462 0.2011 0.214968
81 2 0.339449 0.181094 0.224885
69 1 0.317266 0.181052 0.224231
75 3 0.294641 0.131735 0.2459
65 3 0.351671 0.234394 0.24626
103 4 0.335829 0.249311 0.186867
79 3 0.372068 0.143967 0.24617
6 2 0.0722456 0.250192 0.241151
14 4 0.099904 0.28457 0.188259
8 3 0.121992 0.293473 0.198254
41 2 0.156031 0.257821 0.23348
17 4 0.142638 0.288772 0.18357
25 3 0.190633 0.261429 0.209299
39 2 0.214531 0.26008 0.174108
93 3 0.20559 0.332537 0.226779
97 4 0.200353 0.316499 0.207193
91 4 0.225066 0.348812 0.221783
105 2 0.22296 0.283221 0.24731
34 4 0.140235 0.309266 0.248793
100 3 0.310358 0.252195 0.183888
99 2 0.250896 0.302785 0.246347
72 3 0.252272 0.297842 0.187891
70 4 0.259931 0.310783 0.16686
96 3 0.259362 0.262709 0.237371
76 4 0.27149 0.285508 0.200269
94 2 0.300788 0.268743 0.240337
85 4 0.322127 0.322117 0.226946
86 3 0.303857 0.322121 0.245113
95 1 0.285652 0.254717 0.248472
38 4 0.128124 0.21528 0.296419
53 1 0.226305 0.149722 0.255968
7 3 0.148737 0.149999 0.261337
50 3 0.218451 0.207337 0.263554
37 3 0.141707 0.232103 0.282082
54 3 0.204684 0.159276 0.274123
10 4 0.15216 0.144078 0.286261
56 1 0.205595 0.188063 0.28156
57 2 0.185715 0.195777 0.287559
49 4 0.180046 0.213448 0.345708
51 3 0.173608 0.189226 0.339949
63 2 0.216653 0.18895 0.300914
55 4 0.187059 0.171475 0.352995
62 2 0.243416 0.142716 0.268548
26 4 0.223483 0.249023 0.294905
71 3 0.307407 0.180748 0.251885
60 2 0.258555 0.197994 0.25661
68 4 0.34388 0.221562 0.267375
84 2 0.321623 0.147627 0.273619
78 2 0.288721 0.155169 0.280807
77 1 0.302754 0.153851 0.263318
47 4 0.258927 0.204748 0.33863
44 3 0.26686 0.194812 0.31597
43 4 0.284471 0.209281 0.303789
82 4 0.385661 0.16018 0.260961
40 4 0.146234 0.254625 0.294055
23 3 0.208691 0.254254 0.315652
98 1 0.244392 0.282671 0.25301
28 4 0.17734 0.316188 0.270038
30 3 0.156186 0.301502 0.267684
22 4 0.209581 0.278767 0.323783
92 3 0.247359 0.282797 0.282477
89 4 0.29513 0.3455 0.251419
64 4 0.36231 0.257349 0.251623
88 3 0.289858 0.255057 0.277587
102 2 0.273952 0.270274 0.313834
90 1 0.27428 0.275087 0.29225
87 2 0.286173 0.294219 0.29259
ITEM: TIMESTEP
1100000
ITEM: NUMBER OF ATOMS
105
ITEM: BOX BOUNDS pp pp pp
0.0000000000000000e+00 5.0000000000000000e+01
0.0000000000000000e+00 5.0000000000000000e+01
0.0000000000000000e+00 5.0000000000000000e+01
ITEM: ATOMS id type xs ys zs
70 4 0.275467 0.259707 0.0975005
72 3 0.268031 0.281921 0.108507
10 4 0.1406 0.102834 0.237259
73 2 0.29703 0.11077 0.222504
83 2 0.331344 0.118353 0.224807
16 1 0.0940221 0.222798 0.236249
3 3 0.088753 0.221788 0.207723
11 1 0.114585 0.177227 0.235996
1 3 0.110654 0.176107 0.20684
13 1 0.102813 0.200761 0.19296
5 2 0.0906102 0.196169 0.1742
20 2 0.121099 0.210757 0.184089
21 2 0.109221 0.239301 0.238649
6 2 0.0762421 0.232755 0.245845
4 2 0.106931 0.158238 0.24589
19 2 0.136916 0.176631 0.239387
42 2 0.159781 0.220897 0.206596
35 1 0.171214 0.235295 0.219204
36 2 0.179794 0.221088 0.234404
45 2 0.230684 0.212473 0.241349
29 3 0.193568 0.246846 0.203521
12 4 0.173151 0.12993 0.229462
61 4 0.232301 0.173839 0.187116
9 3 0.15218 0.248613 0.157114
7 3 0.150784 0.126152 0.241452
52 2 0.247209 0.130598 0.248638
74 1 0.310947 0.127583 0.226298
58 3 0.257984 0.171109 0.18867
59 4 0.2663 0.15346 0.205838
67 3 0.307622 0.14813 0.204898
104 2 0.271047 0.231917 0.241344
101 4 0.280419 0.233809 0.168777
66 2 0.304916 0.190206 0.198177
81 2 0.335906 0.178935 0.204313
69 1 0.315571 0.175738 0.211464
100 3 0.296686 0.239632 0.188199
71 3 0.314957 0.184713 0.239548
94 2 0.300208 0.24869 0.245014
80 4 0.396953 0.127334 0.237919
14 4 0.081789 0.299997 0.188393
8 3 0.100618 0.289349 0.202326
17 4 0.111087 0.268154 0.192664
18 4 0.145233 0.25288 0.132391
33 3 0.153448 0.251783 0.235595
24 2 0.217218 0.268189 0.231464
15 4 0.175888 0.257297 0.162649
27 1 0.203553 0.272859 0.214134
32 1 0.162866 0.279075 0.241836
41 2 0.146216 0.293245 0.24466
25 3 0.183394 0.291215 0.224807
39 2 0.216575 0.283305 0.199058
93 3 0.210089 0.330813 0.154372
97 4 0.190027 0.325641 0.169947
91 4 0.207606 0.3189 0.131337
105 2 0.254566 0.314233 0.239208
103 4 0.316117 0.254842 0.180922
96 3 0.26863 0.273859 0.232783
76 4 0.284127 0.290544 0.127241
99 2 0.287197 0.31194 0.236867
98 1 0.27027 0.300372 0.246216
95 1 0.278542 0.251199 0.249086
2 3 0.10395 0.199694 0.251978
40 4 0.0855985 0.230439 0.29839
37 3 0.104932 0.247683 0.296757
46 3 0.247118 0.173919 0.250704
48 1 0.230066 0.196893 0.257633
38 4 0.128536 0.236644 0.297723
60 2 0.241466 0.20773 0.273633
53 1 0.23984 0.147417 0.26125
50 3 0.202152 0.191169 0.266109
54 3 0.212703 0.142373 0.270923
56 1 0.197965 0.166141 0.280385
57 2 0.175554 0.162408 0.282132
49 4 0.171745 0.194684 0.368319
51 3 0.166964 0.181749 0.346529
63 2 0.204343 0.168498 0.301549
55 4 0.142002 0.17493 0.344057
23 3 0.211546 0.247701 0.326516
26 4 0.211614 0.236441 0.303451
22 4 0.224484 0.234522 0.345021
65 3 0.352169 0.238471 0.253021
62 2 0.253537 0.144412 0.278737
75 3 0.308682 0.136552 0.254133
68 4 0.354145 0.220064 0.271223
84 2 0.339874 0.161319 0.265941
78 2 0.310627 0.170735 0.279372
77 1 0.318322 0.163674 0.259761
47 4 0.259577 0.183738 0.341979
44 3 0.265478 0.184344 0.316966
43 4 0.2718 0.207309 0.307613
79 3 0.390389 0.144918 0.25593
82 4 0.406257 0.164758 0.258048
31 2 0.171625 0.278529 0.262119
34 4 0.204454 0.33587 0.279483
28 4 0.201929 0.306268 0.311072
30 3 0.197928 0.311723 0.286289
92 3 0.272737 0.302911 0.275372
85 4 0.317272 0.358393 0.284985
88 3 0.274806 0.251836 0.278132
102 2 0.268616 0.279072 0.310389
90 1 0.277993 0.278318 0.290354
87 2 0.298438 0.280583 0.297433
64 4 0.368784 0.258106 0.256693
86 3 0.321645 0.380961 0.272282
89 4 0.300535 0.395251 0.267597
ITEM: TIMESTEP
1200000
ITEM: NUMBER OF ATOMS
105
ITEM: BOX BOUNDS pp pp pp
0.0000000000000000e+00 5.0000000000000000e+01
0.0000000000000000e+00 5.0000000000000000e+01
0.0000000000000000e+00 5.0000000000000000e+01
ITEM: ATOMS id type xs ys zs
70 4 0.244875 0.243037 0.0644622
72 3 0.260142 0.258317 0.0507641
76 4 0.282475 0.264206 0.0623522
12 4 0.190136 0.116806 0.229829
52 2 0.243987 0.122409 0.249405
73 2 0.303195 0.118201 0.217382
16 1 0.0864925 0.232684 0.228044
3 3 0.102194 0.23391 0.203116
13 1 0.124854 0.21491 0.200539
21 2 0.093694 0.248358 0.242806
6 2 0.0658748 0.240019 0.225245
4 2 0.104647 0.169473 0.247856
2 3 0.0860747 0.20705 0.243293
11 1 0.10986 0.190044 0.240297
1 3 0.123542 0.189039 0.213826
5 2 0.132334 0.211945 0.180261
7 3 0.167914 0.130132 0.229762
10 4 0.164206 0.144122 0.208045
20 2 0.141983 0.225826 0.209584
45 2 0.214613 0.199943 0.236471
61 4 0.228721 0.19525 0.189556
9 3 0.18438 0.229479 0.159396
29 3 0.191218 0.248253 0.242432
15 4 0.189318 0.248357 0.176236
18 4 0.198365 0.230527 0.137699
46 3 0.234966 0.16302 0.24234
58 3 0.252704 0.188595 0.182541
59 4 0.259972 0.165595 0.191914
83 2 0.333897 0.131209 0.221771
74 1 0.313055 0.134502 0.229296
67 3 0.304939 0.161274 0.219485
101 4 0.310857 0.205142 0.169617
66 2 0.290203 0.199102 0.233576
81 2 0.324125 0.195449 0.233508
69 1 0.306337 0.183847 0.238247
100 3 0.312383 0.231052 0.168336
103 4 0.307111 0.240833 0.145136
104 2 0.2526 0.248929 0.203114
80 4 0.397229 0.150659 0.22069
79 3 0.384594 0.164523 0.238294
82 4 0.398481 0.182797 0.249759
14 4 0.0881579 0.315913 0.208544
8 3 0.100131 0.293916 0.215895
17 4 0.120535 0.288244 0.20104
27 1 0.19443 0.277545 0.240478
25 3 0.1717 0.295844 0.246026
39 2 0.204202 0.28319 0.221
93 3 0.228577 0.300769 0.152019
97 4 0.204854 0.307802 0.145406
91 4 0.24737 0.309968 0.136755
64 4 0.359785 0.250432 0.24919
94 2 0.286139 0.251006 0.212283
95 1 0.265219 0.259527 0.218166
105 2 0.263696 0.326275 0.230215
96 3 0.265791 0.288354 0.212025
98 1 0.272271 0.306008 0.234673
99 2 0.294037 0.311303 0.233076
88 3 0.260161 0.250085 0.245634
40 4 0.0822266 0.220355 0.308738
37 3 0.0876908 0.243426 0.319452
19 2 0.124923 0.196103 0.255607
42 2 0.162998 0.218074 0.255452
35 1 0.170986 0.238031 0.261298
36 2 0.180654 0.232861 0.280543
48 1 0.22193 0.187 0.253478
60 2 0.237763 0.200401 0.261223
53 1 0.242713 0.141458 0.2614
50 3 0.202952 0.183884 0.275686
54 3 0.225832 0.138426 0.285034
56 1 0.202979 0.156922 0.288406
57 2 0.184793 0.145461 0.283104
49 4 0.143456 0.188717 0.321967
51 3 0.146906 0.163129 0.320141
63 2 0.197714 0.161624 0.309388
55 4 0.148354 0.150932 0.342939
22 4 0.218579 0.227191 0.318837
75 3 0.314342 0.12934 0.25806
71 3 0.30645 0.178815 0.267086
62 2 0.263811 0.14347 0.268151
68 4 0.339705 0.230819 0.28237
84 2 0.338134 0.154571 0.278966
78 2 0.309568 0.148276 0.296784
77 1 0.316403 0.15246 0.276062
47 4 0.262432 0.172045 0.342295
44 3 0.26192 0.195903 0.332885
43 4 0.274327 0.197762 0.309989
65 3 0.337773 0.241509 0.259243
38 4 0.0980303 0.26055 0.302723
41 2 0.131202 0.29365 0.25952
23 3 0.216509 0.25273 0.324145
33 3 0.147534 0.255202 0.267463
32 1 0.151483 0.284252 0.264709
24 2 0.209965 0.284149 0.255058
26 4 0.231738 0.260207 0.343414
31 2 0.153655 0.293756 0.284715
34 4 0.194573 0.317938 0.326664
28 4 0.218196 0.354149 0.328505
30 3 0.200449 0.340694 0.315675
92 3 0.267538 0.297893 0.262385
85 4 0.288749 0.354071 0.302796
102 2 0.255105 0.263922 0.28504
90 1 0.267623 0.269049 0.267354
87 2 0.287312 0.263816 0.275481
86 3 0.306324 0.353298 0.283528
89 4 0.302995 0.371287 0.265214
ITEM: TIMESTEP
1300000
ITEM: NUMBER OF ATOMS
105
ITEM: BOX BOUNDS pp pp pp
0.0000000000000000e+00 5.0000000000000000e+01
0.0000000000000000e+00 5.0000000000000000e+01
0.0000000000000000e+00 5.0000000000000000e+01
ITEM: ATOMS id type xs ys zs
72 3 0.251726 0.227852 0.00713969
70 4 0.254344 0.249871 0.0201704
16 1 0.1046 0.243392 0.211935
3 3 0.120998 0.226891 0.194567
2 3 0.086969 0.231039 0.231722
1 3 0.112914 0.187441 0.225062
11 1 0.093552 0.203821 0.240628
4 2 0.075068 0.191261 0.243062
13 1 0.128933 0.200357 0.204296
5 2 0.132627 0.187238 0.185896
20 2 0.149996 0.201286 0.212298
45 2 0.199071 0.160278 0.207318
9 3 0.191298 0.22805 0.186554
15 4 0.171851 0.24523 0.188225
18 4 0.205924 0.231586 0.165295
46 3 0.238664 0.161543 0.220242
48 1 0.212517 0.174026 0.218384
60 2 0.215225 0.191273 0.204726
50 3 0.199621 0.183629 0.243371
10 4 0.131597 0.133987 0.244262
53 1 0.245477 0.148866 0.246295
52 2 0.24074 0.127532 0.243048
90 1 0.253639 0.225696 0.248032
73 2 0.312182 0.126715 0.219391
88 3 0.261304 0.222147 0.220163
61 4 0.278481 0.168951 0.138289
58 3 0.270963 0.187681 0.154339
59 4 0.278865 0.184772 0.178789
83 2 0.345232 0.134981 0.223783
74 1 0.32439 0.142438 0.229548
67 3 0.319011 0.16763 0.215505
101 4 0.342651 0.213605 0.166882
81 2 0.344415 0.197456 0.229517
100 3 0.360757 0.224436 0.182235
103 4 0.373857 0.243462 0.170633
66 2 0.31407 0.210261 0.222644
94 2 0.294957 0.240194 0.201724
69 1 0.323444 0.192087 0.231674
104 2 0.265809 0.245255 0.18476
95 1 0.272833 0.245233 0.206126
62 2 0.267545 0.148209 0.248849
80 4 0.392178 0.188407 0.21846
79 3 0.392319 0.173657 0.239524
82 4 0.413918 0.158976 0.241095
6 2 0.0941578 0.259684 0.200365
21 2 0.118857 0.256075 0.223835
14 4 0.081647 0.302564 0.231875
8 3 0.107033 0.307873 0.234675
29 3 0.167616 0.266588 0.244203
39 2 0.173325 0.307138 0.236833
93 3 0.228629 0.314994 0.173
91 4 0.207231 0.301592 0.179978
24 2 0.201395 0.292459 0.248793
105 2 0.250015 0.294907 0.247192
97 4 0.251117 0.304488 0.180433
64 4 0.344099 0.274332 0.245189
96 3 0.270518 0.272445 0.217003
98 1 0.261456 0.275547 0.244494
65 3 0.329965 0.252333 0.246347
89 4 0.319591 0.333435 0.246516
12 4 0.132876 0.099622 0.270738
7 3 0.144677 0.121018 0.262566
37 3 0.0539107 0.243952 0.298344
38 4 0.0602473 0.220751 0.307958
19 2 0.0989405 0.203833 0.261855
102 2 0.237032 0.212073 0.253838
42 2 0.145103 0.233353 0.259808
35 1 0.159986 0.248574 0.265955
36 2 0.178978 0.23583 0.268385
54 3 0.233327 0.158449 0.271354
56 1 0.205616 0.168289 0.267657
57 2 0.191091 0.151304 0.266528
49 4 0.160349 0.212638 0.319586
51 3 0.157183 0.188697 0.309713
63 2 0.198484 0.178737 0.285632
55 4 0.14145 0.173713 0.323816
23 3 0.221956 0.241477 0.334241
75 3 0.320962 0.14033 0.258953
71 3 0.317701 0.191267 0.260836
84 2 0.342858 0.166225 0.284174
78 2 0.309153 0.164127 0.291995
77 1 0.323024 0.165485 0.274196
47 4 0.263826 0.196067 0.309674
44 3 0.280966 0.188029 0.327115
43 4 0.294354 0.208019 0.337656
87 2 0.270603 0.218335 0.26
68 4 0.325542 0.244376 0.270553
40 4 0.0703283 0.253244 0.280617
17 4 0.115813 0.304414 0.258663
22 4 0.220603 0.25081 0.358649
27 1 0.179309 0.29212 0.251997
25 3 0.174044 0.303452 0.278579
41 2 0.150896 0.294874 0.31375
33 3 0.15347 0.258781 0.292743
32 1 0.164536 0.285117 0.299715
26 4 0.22799 0.258933 0.31651
31 2 0.18269 0.281428 0.311995
34 4 0.141612 0.337456 0.364517
28 4 0.1755 0.351889 0.341814
30 3 0.163064 0.331402 0.351136
92 3 0.248323 0.252932 0.258423
99 2 0.279747 0.28038 0.256066
85 4 0.313961 0.331989 0.289668
86 3 0.302831 0.336019 0.266526
76 4 0.273942 0.218966 0.99778
ITEM: TIMESTEP
1400000
ITEM: NUMBER OF ATOMS
105
ITEM: BOX BOUNDS pp pp pp
0.0000000000000000e+00 5.0000000000000000e+01
0.0000000000000000e+00 5.0000000000000000e+01
0.0000000000000000e+00 5.0000000000000000e+01
ITEM: ATOMS id type xs ys zs
11 1 0.104823 0.201152 0.222366
2 3 0.0907987 0.222435 0.23765
4 2 0.0895124 0.187597 0.213267
1 3 0.122908 0.207318 0.200187
19 2 0.115051 0.187006 0.236377
16 1 0.100712 0.249861 0.234354
13 1 0.131211 0.23528 0.197284
5 2 0.134376 0.240342 0.176315
20 2 0.152209 0.23555 0.204704
45 2 0.183339 0.168975 0.213496
9 3 0.194854 0.222046 0.162094
15 4 0.211736 0.233862 0.146804
18 4 0.194834 0.196443 0.160903
46 3 0.225482 0.159549 0.218777
48 1 0.20118 0.175039 0.225399
60 2 0.205936 0.196393 0.218849
53 1 0.244157 0.152744 0.240554
29 3 0.192354 0.247788 0.237411
104 2 0.243965 0.214784 0.214196
73 2 0.306298 0.131478 0.197445
59 4 0.264711 0.170612 0.178476
83 2 0.338288 0.135462 0.210506
52 2 0.252617 0.132691 0.23716
61 4 0.280198 0.180578 0.139455
58 3 0.259735 0.180649 0.155198
74 1 0.3186 0.146174 0.208238
67 3 0.322823 0.170153 0.191692
81 2 0.352375 0.197339 0.206052
66 2 0.323601 0.212511 0.19487
69 1 0.330478 0.194728 0.206464
75 3 0.309295 0.148458 0.236394
71 3 0.321859 0.197801 0.234255
94 2 0.278579 0.220809 0.220233
62 2 0.262593 0.16499 0.237545
95 1 0.257957 0.226441 0.227313
100 3 0.380202 0.238298 0.185276
101 4 0.399834 0.227416 0.171963
80 4 0.395501 0.190278 0.242667
79 3 0.386999 0.16586 0.241858
3 3 0.116199 0.257275 0.210843
6 2 0.083148 0.26288 0.237725
39 2 0.17338 0.275691 0.212413
93 3 0.208048 0.329464 0.192278
91 4 0.212443 0.347079 0.173472
97 4 0.185715 0.332691 0.205553
27 1 0.189701 0.275773 0.227875
24 2 0.20712 0.280388 0.214058
25 3 0.185141 0.297582 0.246992
96 3 0.254723 0.25531 0.223129
98 1 0.264234 0.273321 0.244781
105 2 0.253636 0.292938 0.245035
99 2 0.284332 0.280938 0.238313
103 4 0.387851 0.251157 0.206562
12 4 0.108016 0.117365 0.268108
7 3 0.0929775 0.137281 0.274223
37 3 0.0574104 0.233624 0.303429
38 4 0.0383387 0.246994 0.292583
40 4 0.0521524 0.208566 0.305448
10 4 0.0989206 0.148181 0.296832
50 3 0.191679 0.178227 0.253301
42 2 0.16109 0.226423 0.257097
35 1 0.177355 0.240766 0.261244
36 2 0.190179 0.227637 0.273692
54 3 0.235805 0.155472 0.268636
56 1 0.211744 0.172498 0.273629
57 2 0.201977 0.163514 0.292081
49 4 0.14158 0.206057 0.330886
51 3 0.163209 0.191891 0.333085
63 2 0.21818 0.192348 0.282274
55 4 0.170666 0.188284 0.357626
22 4 0.204344 0.23726 0.333361
77 1 0.317322 0.173064 0.250004
88 3 0.257716 0.216493 0.254678
102 2 0.262876 0.228583 0.294874
64 4 0.345287 0.247314 0.269577
90 1 0.270367 0.234155 0.274517
84 2 0.336156 0.168655 0.260645
78 2 0.303924 0.176612 0.266911
47 4 0.286545 0.206254 0.335022
44 3 0.30333 0.198229 0.317379
43 4 0.319596 0.179614 0.325051
87 2 0.292359 0.229873 0.276043
65 3 0.369313 0.238858 0.274186
68 4 0.375251 0.237029 0.299185
82 4 0.388965 0.153202 0.264701
21 2 0.113479 0.255513 0.251527
17 4 0.10637 0.337351 0.251721
8 3 0.102083 0.312646 0.257654
14 4 0.0970386 0.308161 0.282633
34 4 0.130111 0.283582 0.33665
23 3 0.226061 0.251691 0.33352
33 3 0.164507 0.262466 0.276256
41 2 0.152946 0.303131 0.274278
32 1 0.172018 0.290451 0.27191
26 4 0.22615 0.269949 0.315357
31 2 0.184505 0.298452 0.28843
28 4 0.157037 0.31771 0.33683
30 3 0.133551 0.308664 0.330874
89 4 0.326917 0.360007 0.253761
92 3 0.266667 0.263594 0.272079
85 4 0.299182 0.346051 0.28424
86 3 0.304996 0.346641 0.25895
76 4 0.239424 0.200024 0.956418
72 3 0.252367 0.221193 0.963516
70 4 0.278117 0.21834 0.961163
ITEM: TIMESTEP
1500000
ITEM: NUMBER OF ATOMS
105
ITEM: BOX BOUNDS pp pp pp
0.0000000000000000e+00 5.0000000000000000e+01
0.0000000000000000e+00 5.0000000000000000e+01
0.0000000000000000e+00 5.0000000000000000e+01
ITEM: ATOMS id type xs ys zs
11 1 0.120648 0.213912 0.238448
2 3 0.103248 0.237469 0.2413
5 2 0.114104 0.211899 0.170007
13 1 0.120877 0.220999 0.188894
3 3 0.107435 0.246907 0.191263
1 3 0.123067 0.202367 0.211581
20 2 0.142352 0.226754 0.182617
45 2 0.188603 0.163183 0.21145
9 3 0.19524 0.221957 0.164162
15 4 0.196951 0.245079 0.152637
18 4 0.210108 0.204346 0.152716
46 3 0.223711 0.154305 0.234151
48 1 0.197428 0.166887 0.231563
60 2 0.200704 0.18874 0.227141
39 2 0.16914 0.237596 0.21478
104 2 0.249777 0.22462 0.186677
88 3 0.249011 0.21089 0.226921
19 2 0.140929 0.220559 0.245439
61 4 0.281486 0.222798 0.129903
73 2 0.269722 0.15782 0.216683
59 4 0.293669 0.182208 0.139864
83 2 0.294412 0.134834 0.214417
58 3 0.274221 0.19862 0.13544
74 1 0.291746 0.156161 0.220218
67 3 0.306007 0.172452 0.200284
81 2 0.346665 0.181464 0.204376
66 2 0.326791 0.209844 0.198414
69 1 0.326877 0.190968 0.20969
75 3 0.296247 0.160473 0.248831
71 3 0.329001 0.197355 0.238562
94 2 0.280147 0.222808 0.199898
95 1 0.260178 0.229079 0.205416
103 4 0.367591 0.249974 0.224605
100 3 0.388114 0.243037 0.21145
101 4 0.4088 0.23768 0.225551
79 3 0.385178 0.156192 0.244514
16 1 0.103837 0.256482 0.218571
6 2 0.0861806 0.270062 0.219764
17 4 0.104027 0.352209 0.240754
21 2 0.12056 0.270954 0.222441
24 2 0.19928 0.251061 0.210722
93 3 0.189884 0.364637 0.213126
91 4 0.205804 0.362443 0.192829
27 1 0.181354 0.254469 0.223712
25 3 0.170663 0.281265 0.217415
41 2 0.163394 0.319665 0.233266
32 1 0.178237 0.302526 0.235918
31 2 0.19771 0.310941 0.22932
105 2 0.254161 0.287277 0.239026
96 3 0.261285 0.25801 0.209445
98 1 0.262634 0.267128 0.237093
99 2 0.2843 0.271462 0.241115
89 4 0.285183 0.350409 0.246086
97 4 0.183658 0.389129 0.219932
4 2 0.116449 0.198821 0.253721
7 3 0.0920804 0.141646 0.310974
37 3 0.0425895 0.212904 0.30438
40 4 0.052832 0.229917 0.321107
10 4 0.0911483 0.129681 0.28796
38 4 0.0488409 0.217667 0.279762
12 4 0.115549 0.149651 0.31798
30 3 0.109237 0.249748 0.308815
29 3 0.189227 0.248182 0.251127
62 2 0.249715 0.15766 0.267535
53 1 0.231959 0.145513 0.260517
52 2 0.24267 0.125795 0.257181
50 3 0.178513 0.165399 0.253338
54 3 0.214048 0.144231 0.283423
56 1 0.188665 0.158985 0.280244
57 2 0.173525 0.149005 0.29214
49 4 0.175216 0.207229 0.353243
51 3 0.197534 0.205939 0.340272
63 2 0.19031 0.178203 0.291721
55 4 0.214692 0.189775 0.350411
102 2 0.238916 0.21027 0.268921
77 1 0.3181 0.177718 0.25712
64 4 0.367056 0.221597 0.29966
90 1 0.252287 0.221412 0.254273
84 2 0.334834 0.164591 0.265109
78 2 0.312209 0.187283 0.276986
47 4 0.33996 0.169613 0.341562
44 3 0.329547 0.191611 0.332993
43 4 0.326497 0.209261 0.35154
87 2 0.272832 0.214368 0.258892
80 4 0.389925 0.180077 0.251049
82 4 0.400074 0.138319 0.255888
65 3 0.377524 0.245408 0.302405
8 3 0.100313 0.332628 0.256974
14 4 0.0875879 0.340049 0.278279
34 4 0.109842 0.269461 0.291989
28 4 0.120428 0.255465 0.33144
42 2 0.165405 0.264829 0.281449
23 3 0.230745 0.263903 0.330294
36 2 0.19779 0.266512 0.289425
35 1 0.184725 0.269066 0.271316
22 4 0.236499 0.253491 0.353357
33 3 0.18382 0.297426 0.264118
26 4 0.247007 0.258026 0.311375
92 3 0.252524 0.25059 0.2588
85 4 0.297715 0.329554 0.281789
86 3 0.295524 0.328622 0.256235
68 4 0.3603 0.264746 0.302626
76 4 0.248404 0.210048 0.920053
72 3 0.257995 0.186655 0.917421
70 4 0.253361 0.176174 0.894122
ITEM: TIMESTEP
1600000
ITEM: NUMBER OF ATOMS
105
ITEM: BOX BOUNDS pp pp pp
0.0000000000000000e+00 5.0000000000000000e+01
0.0000000000000000e+00 5.0000000000000000e+01
0.0000000000000000e+00 5.0000000000000000e+01
ITEM: ATOMS id type xs ys zs
5 2 0.094003 0.218031 0.18529
13 1 0.107383 0.226747 0.200286
1 3 0.110416 0.208918 0.223214
20 2 0.126577 0.227103 0.188573
45 2 0.163495 0.16852 0.228551
9 3 0.185689 0.198751 0.169965
15 4 0.194384 0.208375 0.147597
18 4 0.171603 0.177228 0.1679
46 3 0.201374 0.15114 0.235839
48 1 0.1828 0.173541 0.238233
60 2 0.189193 0.189196 0.223804
88 3 0.244413 0.225453 0.225965
29 3 0.178909 0.247765 0.24735
62 2 0.238803 0.165146 0.249419
24 2 0.192962 0.243414 0.206765
104 2 0.244377 0.235511 0.185883
61 4 0.312123 0.229946 0.150042
73 2 0.279518 0.17225 0.227578
59 4 0.299802 0.191276 0.135313
83 2 0.308266 0.154394 0.2367
58 3 0.292275 0.213973 0.145182
74 1 0.300422 0.175312 0.235562
67 3 0.313609 0.188841 0.213119
81 2 0.352893 0.204759 0.215903
66 2 0.33065 0.226518 0.203834
69 1 0.331568 0.210818 0.219586
71 3 0.329886 0.224456 0.246096
94 2 0.276104 0.223511 0.196797
95 1 0.258758 0.237454 0.203352
82 4 0.373885 0.12968 0.224224
79 3 0.374683 0.140952 0.247442
100 3 0.383013 0.249738 0.227601
3 3 0.100142 0.255262 0.203913
16 1 0.104077 0.267431 0.230692
6 2 0.0886607 0.283915 0.232407
8 3 0.113158 0.322004 0.206348
14 4 0.106451 0.344933 0.216127
17 4 0.121061 0.322441 0.182031
21 2 0.123859 0.27816 0.230745
39 2 0.160732 0.256268 0.210923
27 1 0.181195 0.257927 0.219656
25 3 0.188587 0.285947 0.214748
41 2 0.176712 0.322606 0.22948
32 1 0.186292 0.304612 0.237162
31 2 0.206749 0.311337 0.241062
96 3 0.27134 0.263936 0.20472
105 2 0.275686 0.296561 0.231221
98 1 0.27618 0.27377 0.2324
99 2 0.297753 0.271086 0.238346
101 4 0.402782 0.265574 0.223041
97 4 0.202035 0.379976 0.241746
93 3 0.176475 0.376 0.245875
11 1 0.105959 0.220968 0.250012
2 3 0.103729 0.249916 0.254203
4 2 0.0862427 0.212052 0.25661
37 3 0.033635 0.217406 0.283385
40 4 0.0231283 0.228839 0.304115
38 4 0.0181468 0.20088 0.27142
12 4 0.111034 0.144477 0.3036
34 4 0.100567 0.238161 0.322188
19 2 0.119753 0.211035 0.264549
7 3 0.13219 0.151658 0.316642
52 2 0.232624 0.131495 0.256599
10 4 0.129851 0.148568 0.342415
90 1 0.247647 0.237596 0.252594
53 1 0.222522 0.15153 0.256175
50 3 0.178835 0.188523 0.263205
54 3 0.216768 0.160729 0.283213
56 1 0.196233 0.182441 0.285682
57 2 0.183532 0.177925 0.30393
51 3 0.24149 0.179522 0.348212
63 2 0.20657 0.201124 0.292749
55 4 0.234617 0.160917 0.331819
102 2 0.229329 0.235936 0.264863
49 4 0.244054 0.171153 0.372935
75 3 0.299993 0.186663 0.262764
77 1 0.31886 0.208545 0.268265
84 2 0.336213 0.198242 0.27916
78 2 0.311836 0.222264 0.284212
47 4 0.30064 0.189708 0.342447
44 3 0.310205 0.169081 0.329468
43 4 0.294142 0.159708 0.311651
87 2 0.261061 0.223833 0.262108
68 4 0.336308 0.243478 0.323846
22 4 0.268056 0.246401 0.337901
23 3 0.282512 0.247305 0.316476
64 4 0.378922 0.236043 0.327153
80 4 0.395686 0.154605 0.25214
30 3 0.116904 0.256416 0.314038
28 4 0.105552 0.27697 0.303211
42 2 0.149253 0.262269 0.271689
36 2 0.180501 0.262892 0.287228
35 1 0.170846 0.267489 0.267463
33 3 0.172545 0.296213 0.261846
103 4 0.373325 0.251503 0.251044
65 3 0.360142 0.25229 0.318717
92 3 0.259465 0.264369 0.254695
89 4 0.260327 0.328608 0.278243
26 4 0.279851 0.269342 0.303394
85 4 0.302484 0.337897 0.284222
86 3 0.284621 0.328348 0.268427
91 4 0.163582 0.395985 0.255852
70 4 0.230601 0.178791 0.859818
72 3 0.248355 0.160383 0.862822
76 4 0.267744 0.161628 0.846103
ITEM: TIMESTEP
1700000
ITEM: NUMBER OF ATOMS
105
ITEM: BOX BOUNDS pp pp pp
0.0000000000000000e+00 5.0000000000000000e+01
0.0000000000000000e+00 5.0000000000000000e+01
0.0000000000000000e+00 5.0000000000000000e+01
ITEM: ATOMS id type xs ys zs
59 4 0.264196 0.193818 0.113657
5 2 0.108695 0.184996 0.213769
13 1 0.107907 0.206706 0.220505
1 3 0.116881 0.208778 0.248473
3 3 0.0833681 0.221034 0.212501
40 4 0.0517086 0.184879 0.23418
16 1 0.0789152 0.246801 0.226608
37 3 0.0285999 0.187242 0.244784
20 2 0.125101 0.213858 0.207925
9 3 0.184319 0.20764 0.179754
15 4 0.207257 0.200002 0.189327
18 4 0.186034 0.214137 0.154643
46 3 0.196392 0.174532 0.240793
60 2 0.164981 0.205081 0.240354
88 3 0.248384 0.222965 0.225003
104 2 0.25305 0.233846 0.18368
61 4 0.298194 0.216595 0.128556
73 2 0.292193 0.174623 0.188099
83 2 0.321809 0.165648 0.205314
58 3 0.275194 0.205871 0.133639
74 1 0.307431 0.182673 0.202558
67 3 0.322531 0.204794 0.190313
81 2 0.358066 0.207112 0.211639
66 2 0.347318 0.238877 0.201152
69 1 0.339742 0.219602 0.208952
94 2 0.281609 0.232819 0.201803
95 1 0.26052 0.238915 0.203646
75 3 0.295245 0.1868 0.229113
71 3 0.331059 0.222692 0.237065
77 1 0.311682 0.203139 0.247477
79 3 0.368231 0.15576 0.246077
6 2 0.0571098 0.250849 0.226626
17 4 0.119877 0.325941 0.152385
21 2 0.0878981 0.262958 0.21426
8 3 0.135186 0.309164 0.16475
29 3 0.181349 0.261642 0.242064
14 4 0.153048 0.297124 0.149983
24 2 0.198604 0.26407 0.204808
39 2 0.165095 0.271287 0.204059
27 1 0.183398 0.275568 0.216072
25 3 0.18896 0.304092 0.213889
32 1 0.190857 0.32034 0.238383
31 2 0.206647 0.336482 0.234612
41 2 0.172957 0.33366 0.2402
96 3 0.260595 0.268449 0.206178
105 2 0.253629 0.299548 0.23231
98 1 0.262363 0.278981 0.233153
99 2 0.283566 0.283394 0.237666
100 3 0.382336 0.265321 0.239192
101 4 0.390462 0.287306 0.227786
11 1 0.111482 0.234362 0.262232
4 2 0.109244 0.229996 0.283757
38 4 0.0202929 0.166629 0.257323
10 4 0.0932119 0.186413 0.324493
7 3 0.114916 0.173768 0.318037
90 1 0.246276 0.235177 0.252173
45 2 0.158555 0.176477 0.259491
102 2 0.227841 0.229253 0.26257
19 2 0.129984 0.246462 0.261922
62 2 0.235727 0.171023 0.252767
34 4 0.15956 0.242919 0.337994
48 1 0.175251 0.190559 0.254205
12 4 0.127248 0.163027 0.337897
52 2 0.221618 0.14126 0.251563
53 1 0.21652 0.162528 0.258081
50 3 0.182502 0.204213 0.279447
54 3 0.213464 0.164538 0.287476
56 1 0.197071 0.186918 0.297823
57 2 0.183303 0.177944 0.313306
63 2 0.209724 0.200244 0.310312
87 2 0.262676 0.225233 0.26451
22 4 0.263929 0.224025 0.340189
84 2 0.322912 0.18794 0.260398
78 2 0.297985 0.211108 0.262632
47 4 0.301303 0.17119 0.312956
44 3 0.288022 0.158845 0.293992
43 4 0.264125 0.1521 0.300462
23 3 0.255955 0.228559 0.31616
80 4 0.36495 0.137822 0.264338
82 4 0.379679 0.177004 0.254286
64 4 0.407584 0.238473 0.323392
2 3 0.0885156 0.250692 0.254443
28 4 0.156663 0.285073 0.346702
30 3 0.154798 0.266522 0.328643
36 2 0.200869 0.267284 0.279241
42 2 0.167759 0.277872 0.278641
35 1 0.186155 0.277709 0.265833
33 3 0.195307 0.30612 0.263702
89 4 0.235382 0.325115 0.289335
91 4 0.192719 0.37245 0.312704
26 4 0.250511 0.253348 0.310948
92 3 0.251227 0.2637 0.25586
85 4 0.276549 0.318888 0.301175
86 3 0.260643 0.326302 0.282319
103 4 0.374256 0.268562 0.263558
68 4 0.387896 0.263907 0.352246
65 3 0.410066 0.257057 0.34129
93 3 0.186195 0.378631 0.288746
97 4 0.195622 0.400775 0.2794
51 3 0.220733 0.173879 0.399254
55 4 0.198443 0.170012 0.386839
49 4 0.239285 0.1563 0.393299
72 3 0.241076 0.146195 0.811894
76 4 0.227286 0.135397 0.792433
70 4 0.265879 0.150416 0.806045
ITEM: TIMESTEP
1800000
ITEM: NUMBER OF ATOMS
105
ITEM: BOX BOUNDS pp pp pp
0.0000000000000000e+00 5.0000000000000000e+01
0.0000000000000000e+00 5.0000000000000000e+01
0.0000000000000000e+00 5.0000000000000000e+01
ITEM: ATOMS id type xs ys zs
59 4 0.254359 0.221189 0.118147
13 1 0.10957 0.211731 0.206546
1 3 0.105054 0.217134 0.235011
3 3 0.0907701 0.221947 0.186191
40 4 0.0675277 0.180877 0.231639
16 1 0.072769 0.243776 0.193973
37 3 0.0491582 0.170495 0.216735
38 4 0.0480879 0.179966 0.192572
6 2 0.0533491 0.243024 0.183259
11 1 0.0876905 0.240019 0.241394
2 3 0.0673962 0.249799 0.222092
5 2 0.11238 0.190165 0.20294
20 2 0.129792 0.219512 0.201706
9 3 0.182018 0.217813 0.190896
15 4 0.17682 0.192473 0.191427
18 4 0.184371 0.227912 0.167179
46 3 0.190501 0.176379 0.244608
60 2 0.169274 0.21252 0.243778
102 2 0.217158 0.232944 0.246339
104 2 0.24915 0.240266 0.1946
73 2 0.25292 0.164443 0.228291
88 3 0.253589 0.219205 0.229392
61 4 0.288889 0.222547 0.144162
83 2 0.284037 0.160485 0.243038
58 3 0.263047 0.221544 0.142498
74 1 0.273621 0.173666 0.228391
67 3 0.288374 0.171827 0.203523
81 2 0.331989 0.170523 0.204511
66 2 0.318688 0.193016 0.183281
69 1 0.314995 0.184648 0.204071
94 2 0.282586 0.234771 0.19864
95 1 0.265078 0.240696 0.210483
75 3 0.27338 0.20054 0.241857
71 3 0.320493 0.206459 0.222959
77 1 0.301283 0.212106 0.244212
78 2 0.302715 0.233752 0.249744
21 2 0.0809204 0.262275 0.184407
19 2 0.101308 0.257862 0.244325