LAMMPS (16 Mar 2018)
OMP_NUM_THREADS environment is not set. Defaulting to 1 thread. (../comm.cpp:90)
  using 1 OpenMP thread(s) per MPI task
# REAX potential for high energy CHON systems
# .....

units		real

atom_style	charge
read_data	RDX.data
  orthogonal box = (0 0 0) to (25 25 25)
  1 by 1 by 1 MPI processor grid
  reading atoms ...
  105 atoms

pair_style	reax/c lmp_control
pair_coeff	* * ffield.reax.rdx H C O N
Reading potential file ffield.reax.rdx with DATE: 2010-02-19

neighbor	2 bin
neigh_modify	every 10 delay 0 check no

#fix		        1 all nvt
#fix             2 all qeq/reax 1 0.0 10.0 1e-6 param.qeq
#fix             3 all temp/berendsen 100.0 500.0 100.0
fix             1 all nvt temp 100 500 2 drag 0.2
fix             2 all qeq/reax 1 0.0 10.0 1e-6 param.qeq

timestep	0.01

dump		1 all atom 30 dump.reax.rdx

thermo_style custom step pe ke etotal temp vol press
thermo 1000

run		100000
Neighbor list info ...
  update every 10 steps, delay 0 steps, check no
  max neighbors/atom: 2000, page size: 100000
  master list distance cutoff = 12
  ghost atom cutoff = 12
  binsize = 6, bins = 5 5 5
  2 neighbor lists, perpetual/occasional/extra = 2 0 0
  (1) pair reax/c, perpetual
      attributes: half, newton off, ghost
      pair build: half/bin/newtoff/ghost
      stencil: half/ghost/bin/3d/newtoff
      bin: standard
  (2) fix qeq/reax, perpetual, copy from (1)
      attributes: half, newton off, ghost
      pair build: copy
      stencil: none
      bin: none
Per MPI rank memory allocation (min/avg/max) = 20 | 20 | 20 Mbytes
Step PotEng KinEng TotEng Temp Volume Press 
       0   -10197.932            0   -10197.932            0        15625    38.347492 
    1000   -10198.275    1.9484863   -10196.326    6.2853537        15625   -35.514495 
    2000   -10192.557    21.722502   -10170.835    70.071629        15625     -502.176 
    3000    -10161.96     27.56325   -10134.397    88.912493        15625   -81.031032 
    4000   -10133.793     33.12092   -10100.672    106.84021        15625    1132.7087 
    5000   -10148.358    41.995766   -10106.362    135.46836        15625    202.12118 
    6000   -10182.062    40.191683    -10141.87    129.64881        15625     94.12233 
    7000   -10186.388    41.677909    -10144.71    134.44303        15625   -431.85121 
    8000   -10174.168    38.512841   -10135.656    124.23327        15625   -1105.4215 
    9000   -10139.261    32.513003   -10106.748    104.87922        15625    562.45397 
   10000    -10123.67    49.497474   -10074.172    159.66708        15625      2902.15 
   11000   -10176.362     50.69172    -10125.67    163.51944        15625   -1766.8645 
   12000   -10178.237     48.72305   -10129.514    157.16898        15625   -2581.0373 
   13000   -10159.047    47.157359   -10111.889    152.11843        15625   -487.92258 
   14000   -10152.444    46.888671   -10105.556    151.25171        15625     672.4422 
   15000   -10133.019    50.442118   -10082.576    162.71428        15625    2369.0323 
   16000   -10161.307    51.761626   -10109.545     166.9707        15625    113.67717 
   17000   -10148.163    50.580365   -10097.583    163.16023        15625   -1611.9494 
   18000   -10164.877    54.283757   -10110.594     175.1065        15625   -2842.5687 
   19000   -10161.457    55.214283   -10106.242    178.10815        15625   -166.55594 
   20000   -10124.184     50.02483    -10074.16    161.36821        15625    4350.7838 
   21000   -10150.491    61.605531   -10088.886     198.7248        15625    3087.1645 
   22000   -10146.521    63.965781   -10082.555    206.33841        15625    -842.7596 
   23000   -10153.432    63.751063   -10089.681    205.64577        15625   -3054.3499 
   24000   -10149.441    63.896132   -10085.544    206.11373        15625    -1872.736 
   25000   -10152.288    59.654931   -10092.633    192.43263        15625    831.45884 
   26000    -10161.28    57.908716   -10103.371    186.79975        15625    749.89179 
   27000    -10135.66    68.992517   -10066.667    222.55346        15625    1696.2382 
   28000    -10140.49    68.662151   -10071.827    221.48778        15625    206.96753 
   29000   -10151.896    60.742232   -10091.154       195.94        15625   -1219.6296 
   30000   -10146.108    65.737538   -10080.371    212.05367        15625   -800.59004 
   31000   -10146.153    73.480588   -10072.672    237.03091        15625   -269.90488 
   32000    -10155.46    78.866294   -10076.594    254.40391        15625   -26.417539 
   33000   -10148.648    71.091842   -10077.556    229.32538        15625    1028.7396 
   34000   -10134.156    71.749481   -10062.407    231.44677        15625    1451.8141 
   35000   -10133.697    71.329709   -10062.368    230.09268        15625    -368.9813 
   36000   -10149.116     79.40039   -10069.716    256.12678        15625   -1561.9529 
   37000   -10157.499    80.453308   -10077.046    259.52325        15625   -46.361406 
   38000   -10143.407    77.664394   -10065.743    250.52687        15625    1390.8478 
   39000   -10154.902    77.262884   -10077.639     249.2317        15625    704.18126 
   40000   -10150.742    83.656191   -10067.086    269.85499        15625    148.79694 
   41000   -10139.275    86.876291   -10052.398    280.24226        15625    -887.1299 
   42000    -10159.86     74.57258   -10085.287    240.55341        15625   -602.17847 
   43000   -10151.315    84.537234   -10066.778    272.69702        15625     772.5901 
   44000   -10134.966    90.102799   -10044.864    290.65021        15625    852.24295 
   45000   -10138.045    84.610065   -10053.435    272.93196        15625   -729.85844 
   46000   -10154.063    80.037307   -10074.025    258.18133        15625   -993.23362 
   47000   -10158.487    87.765653   -10070.721    283.11113        15625    799.89659 
   48000   -10144.892    94.371393    -10050.52    304.41968        15625    472.66659 
   49000   -10147.878    83.619422   -10064.259    269.73638        15625   -485.43512 
   50000   -10142.126    80.371469   -10061.755    259.25925        15625   -1035.8871 
   51000   -10139.061    90.835848   -10048.225    293.01485        15625    506.00122 
   52000   -10151.048    93.461215   -10057.587    301.48366        15625   -129.86443 
   53000   -10148.602    105.35549   -10043.247    339.85178        15625   -291.68732 
   54000   -10139.533    112.07413   -10027.458    361.52451        15625   -436.02099 
   55000   -10139.265    97.732892   -10041.532    315.26308        15625    86.264137 
   56000   -10139.245    94.103942   -10045.141    303.55694        15625    1100.2635 
   57000   -10135.889    87.292849   -10048.596    281.58598        15625    1976.3498 
   58000   -10136.712    98.651007   -10038.061     318.2247        15625   -3.0166296 
   59000   -10140.892    101.58462   -10039.308    327.68783        15625   -2173.6471 
   60000   -10136.786     116.1422   -10020.643    374.64713        15625    -1293.855 
   61000   -10124.718    115.15414   -10009.564    371.45988        15625    1293.0544 
   62000   -10120.698    104.87126   -10015.827    338.28977        15625    1856.8096 
   63000   -10133.969     103.9076   -10030.061    335.18123        15625   -213.26214 
   64000   -10124.202    97.505883   -10026.696     314.5308        15625    258.32627 
   65000   -10124.277    108.30957   -10015.967    349.38093        15625      141.479 
   66000   -10125.207    120.41952   -10004.787    388.44476        15625    -61.01343 
   67000   -10131.539    122.74389   -10008.795     395.9426        15625    856.84234 
   68000   -10132.136    128.76916   -10003.367    415.37869        15625    1460.9916 
   69000   -10120.415    126.22726   -9994.1882    407.17913        15625   -677.02204 
   70000   -10116.125    125.73422   -9990.3911     405.5887        15625   -1470.0413 
   71000   -10108.246     115.6757   -9992.5707    373.14229        15625   -207.19302 
   72000   -10116.664    110.94901   -10005.715    357.89513        15625   -562.62242 
   73000   -10115.381    118.98873   -9996.3922    383.82936        15625   -695.91529 
   74000   -10122.748    131.59637   -9991.1516    424.49862        15625    638.18783 
   75000   -10113.966    134.58484   -9979.3812    434.13871        15625    1260.7613 
   76000    -10116.43    133.13397   -9983.2958    429.45852        15625   -712.97198 
   77000   -10104.414    110.40632   -9994.0075    356.14455        15625   -571.85695 
   78000   -10096.649    123.63284   -9973.0161    398.81015        15625   -27.536654 
   79000   -10117.872    133.84119   -9984.0304    431.73988        15625     606.8549 
   80000   -10117.314    146.31752   -9970.9965    471.98553        15625    26.759221 
   81000    -10114.25    131.72233   -9982.5273    424.90491        15625     -1069.66 
   82000   -10103.991     118.8116   -9985.1791    383.25797        15625   -1326.8772 
   83000   -10103.431    131.93582   -9971.4956    425.59358        15625   -1026.2132 
   84000   -10102.802    135.76737   -9967.0349    437.95325        15625    930.22609 
   85000   -10105.023    138.50222   -9966.5213    446.77523        15625    1876.4362 
   86000    -10122.57    144.48115   -9978.0885    466.06183        15625   -1019.4395 
   87000    -10114.85    143.04719   -9971.8026    461.43623        15625   -744.88966 
   88000   -10116.793    136.44475   -9980.3481    440.13832        15625    -212.2335 
   89000   -10105.452    124.99258   -9980.4597    403.19634        15625    2912.5302 
   90000   -10091.806    142.62095   -9949.1846     460.0613        15625   -171.14807 
   91000   -10105.606    151.56276   -9954.0431    488.90543        15625   -1187.5682 
   92000   -10100.501    156.31545   -9944.1856    504.23649        15625    251.91846 
   93000   -10092.814    152.06739   -9940.7469    490.53325        15625    1543.7209 
   94000   -10102.566    154.37989   -9948.1857    497.99281        15625    2390.1534 
   95000   -10088.232    137.97102   -9950.2611    445.06171        15625   -44.875121 
   96000   -10090.433    142.17228   -9948.2611    458.61397        15625   -1219.0898 
   97000   -10077.998    139.36168   -9938.6361    449.54766        15625    227.75305 
   98000   -10077.847    154.31118   -9923.5355    497.77119        15625   -149.99075 
   99000   -10093.251    165.40056   -9927.8503     533.5429        15625      1220.44 
  100000   -10080.689    167.44545   -9913.2432    540.13922        15625    1382.4067 
Loop time of 332.005 on 1 procs for 100000 steps with 105 atoms

Performance: 0.260 ns/day, 92.224 hours/ns, 301.200 timesteps/s
99.2% CPU use with 1 MPI tasks x 1 OpenMP threads

MPI task timing breakdown:
Section |  min time  |  avg time  |  max time  |%varavg| %total
---------------------------------------------------------------
Pair    | 307.97     | 307.97     | 307.97     |   0.0 | 92.76
Neigh   | 6.4488     | 6.4488     | 6.4488     |   0.0 |  1.94
Comm    | 0.60584    | 0.60584    | 0.60584    |   0.0 |  0.18
Output  | 0.76888    | 0.76888    | 0.76888    |   0.0 |  0.23
Modify  | 15.991     | 15.991     | 15.991     |   0.0 |  4.82
Other   |            | 0.2186     |            |       |  0.07

Nlocal:    105 ave 105 max 105 min
Histogram: 1 0 0 0 0 0 0 0 0 0
Nghost:    657 ave 657 max 657 min
Histogram: 1 0 0 0 0 0 0 0 0 0
Neighs:    3158 ave 3158 max 3158 min
Histogram: 1 0 0 0 0 0 0 0 0 0

Total # of neighbors = 3158
Ave neighs/atom = 30.0762
Neighbor list builds = 10000
Dangerous builds not checked

Please see the log.cite file for references relevant to this simulation

Total wall time: 0:05:32
