LAMMPS data file. CGCMM style. atom_style charge generated by VMD/TopoTools v1.7 on Sun Mar 21 20:11:17 -0500 2021
 105 atoms
 0 bonds
 0 angles
 0 dihedrals
 0 impropers
 4 atom types
 0 bond types
 0 angle types
 0 dihedral types
 0 improper types
 0.0 50.0  xlo xhi
 0.0 50.0  ylo yhi
 0.0 50.0  zlo zhi

# Pair Coeffs
#
# 1  C
# 2  H
# 3  N
# 4  O

 Masses

 1 12.010700 # C
 2 1.007940 # H
 3 14.006700 # N
 4 15.999400 # O

 Atoms # charge

1 3 0.000000 4.559000 5.578000 11.236000 # N
2 3 0.000000 2.820000 4.105000 12.029000 # N
3 3 0.000000 2.294000 6.384000 11.447000 # N
4 2 0.000000 4.812000 3.575000 11.740000 # H
5 2 0.000000 3.908000 7.491000 10.740000 # H
6 2 0.000000 0.927000 4.969000 12.129000 # H
7 3 0.000000 5.908000 5.878000 11.188000 # N
8 3 0.000000 2.483000 2.971000 12.745000 # N
9 3 0.000000 1.445000 7.466000 11.595000 # N
10 4 0.000000 6.691000 4.957000 11.428000 # O
11 1 0.000000 4.240000 4.442000 12.097000 # C
12 4 0.000000 6.211000 7.038000 10.907000 # O
13 1 0.000000 3.710000 6.735000 11.511000 # C
14 4 0.000000 3.378000 2.145000 12.934000 # O
15 4 0.000000 1.891000 8.568000 11.278000 # O
16 1 0.000000 1.971000 5.258000 12.319000 # C
17 4 0.000000 1.315000 2.882000 13.128000 # O
18 4 0.000000 0.315000 7.231000 12.025000 # O
19 2 0.000000 4.541000 4.646000 13.135000 # H
20 2 0.000000 3.957000 7.173000 12.490000 # H
21 2 0.000000 2.056000 5.548000 13.377000 # H
22 4 0.000000 6.124000 18.629999 10.289000 # O
23 3 0.000000 5.821000 17.469999 10.570000 # N
24 2 0.000000 3.821000 19.083000 10.122000 # H
25 3 0.000000 4.472000 17.170000 10.618000 # N
26 4 0.000000 6.604000 16.549000 10.810000 # O
27 1 0.000000 3.623000 18.327000 10.893000 # C
28 4 0.000000 1.804000 20.160000 10.660000 # O
29 3 0.000000 2.207000 17.976000 10.829000 # N
30 3 0.000000 1.358000 19.058001 10.977000 # N
31 2 0.000000 4.725000 15.167000 11.122000 # H
32 1 0.000000 4.153000 16.034000 11.479000 # C
33 3 0.000000 2.733000 15.697000 11.411000 # N
34 4 0.000000 0.228000 18.823000 11.407000 # O
35 1 0.000000 1.884000 16.850000 11.701000 # C
36 2 0.000000 0.840000 16.561001 11.511000 # H
37 3 0.000000 2.396000 14.563000 12.127000 # N
38 4 0.000000 3.291000 13.737000 12.316000 # O
39 2 0.000000 3.870000 18.764999 11.872000 # H
40 4 0.000000 1.228000 14.474000 12.510000 # O
41 2 0.000000 4.454000 16.238001 12.517000 # H
42 2 0.000000 1.969000 17.139999 12.759000 # H
43 4 0.000000 14.412000 13.007000 11.056000 # O
44 3 0.000000 14.109000 11.847000 11.337000 # N
45 2 0.000000 12.109000 13.460000 10.889000 # H
46 3 0.000000 12.760000 11.547000 11.385000 # N
47 4 0.000000 14.892000 10.926000 11.577000 # O
48 1 0.000000 11.911000 12.704000 11.660000 # C
49 4 0.000000 10.092000 14.537000 11.427000 # O
50 3 0.000000 10.495000 12.353000 11.596000 # N
51 3 0.000000 9.646000 13.435000 11.744000 # N
52 2 0.000000 13.013000 9.544000 11.889000 # H
53 1 0.000000 12.441000 10.411000 12.246000 # C
54 3 0.000000 11.021000 10.074000 12.178000 # N
55 4 0.000000 8.516000 13.200000 12.174000 # O
56 1 0.000000 10.172000 11.227000 12.468000 # C
57 2 0.000000 9.128000 10.938000 12.278000 # H
58 3 0.000000 10.684000 8.940000 12.894000 # N
59 4 0.000000 11.579000 8.114000 13.083000 # O
60 2 0.000000 12.158000 13.142000 12.639000 # H
61 4 0.000000 9.516000 8.851000 13.277000 # O
62 2 0.000000 12.742000 10.615000 13.284000 # H
63 2 0.000000 10.257000 11.517000 13.526000 # H
64 4 0.000000 23.004999 5.369000 11.948000 # O
65 3 0.000000 22.702000 4.209000 12.229000 # N
66 2 0.000000 20.702000 5.822000 11.781000 # H
67 3 0.000000 21.353001 3.909000 12.277000 # N
68 4 0.000000 23.485001 3.288000 12.469000 # O
69 1 0.000000 20.504000 5.066000 12.552000 # C
70 4 0.000000 18.684999 6.899000 12.319000 # O
71 3 0.000000 19.087999 4.715000 12.488000 # N
72 3 0.000000 18.239000 5.797000 12.636000 # N
73 2 0.000000 21.606001 1.906000 12.781000 # H
74 1 0.000000 21.034000 2.773000 13.138000 # C
75 3 0.000000 19.614000 2.436000 13.070000 # N
76 4 0.000000 17.108999 5.562000 13.066000 # O
77 1 0.000000 18.764999 3.589000 13.360000 # C
78 2 0.000000 17.721001 3.300000 13.170000 # H
79 3 0.000000 19.277000 1.302000 13.786000 # N
80 4 0.000000 20.172001 0.476000 13.975000 # O
81 2 0.000000 20.750999 5.504000 13.531000 # H
82 4 0.000000 18.108999 1.213000 14.169000 # O
83 2 0.000000 21.334999 2.977000 14.176000 # H
84 2 0.000000 18.850000 3.879000 14.418000 # H
85 4 0.000000 21.327000 21.386000 11.005000 # O
86 3 0.000000 21.024000 20.226000 11.286000 # N
87 2 0.000000 19.024000 21.839001 10.838000 # H
88 3 0.000000 19.674999 19.926001 11.334000 # N
89 4 0.000000 21.806999 19.305000 11.526000 # O
90 1 0.000000 18.826000 21.083000 11.609000 # C
91 4 0.000000 17.007000 22.916000 11.376000 # O
92 3 0.000000 17.410000 20.732000 11.545000 # N
93 3 0.000000 16.561001 21.813999 11.693000 # N
94 2 0.000000 19.927999 17.923000 11.838000 # H
95 1 0.000000 19.356001 18.790001 12.195000 # C
96 3 0.000000 17.936001 18.452999 12.127000 # N
97 4 0.000000 15.431000 21.579000 12.123000 # O
98 1 0.000000 17.087000 19.606001 12.417000 # C
99 2 0.000000 16.042999 19.316999 12.227000 # H
100 3 0.000000 17.599001 17.319000 12.843000 # N
101 4 0.000000 18.493999 16.493000 13.032000 # O
102 2 0.000000 19.073000 21.521000 12.588000 # H
103 4 0.000000 16.431000 17.230000 13.226000 # O
104 2 0.000000 19.657000 18.993999 13.233000 # H
105 2 0.000000 17.172001 19.896000 13.475000 # H

